------------------------------------------------------------
          Invoking FHI-aims ...

          When using FHI-aims, please cite the following reference:

            Volker Blum, Ralf Gehrke, Felix Hanke, Paula Havu,
            Ville Havu, Xinguo Ren, Karsten Reuter, and Matthias Scheffler,
            'Ab Initio Molecular Simulations with Numeric Atom-Centered Orbitals',
            Computer Physics Communications 180, 2175-2196 (2009)

          In addition, many other developments in FHI-aims are likely important for
          your particular application. A partial list of references is given at the end of
          this file. Thank you for giving credit to the authors of these developments.

          For any questions about FHI-aims, please visit our slack channel at

            https://fhi-aims.slack.com

          and our main development and support site at

            https://aims-git.rz-berlin.mpg.de .

          The latter site, in particular, has a wiki to collect information, as well
          as an issue tracker to log discussions, suggest improvements, and report issues
          or bugs. https://aims-git.rz-berlin.mpg.de is also the main development site
          of the project and all new and updated code versions can be obtained there.
          Please send an email to aims-coordinators@fhi-berlin.mpg.de and we will add
          you to these sites. They are for you and everyone is welcome there.

------------------------------------------------------------



  Date     :  20220515, Time     :  222854.700
  Time zero on CPU 1             :   0.141030200000000E+01  s.
  Internal wall clock time zero  :           421885734.700  s.

  FHI-aims created a unique identifier for this run for later identification
  aims_uuid : 6D907468-8B9B-43FF-A4A8-2A43BA685403

  Build configuration of the current instance of FHI-aims
  -------------------------------------------------------
  FHI-aims version      : 220115
  Commit number         : 912d67166
  CMake host system     : Linux-5.4.0-96-generic
  CMake version         : 3.16.3
  Fortran compiler      : /opt/intel/oneapi/mpi/2021.5.0/bin/mpiifort (Intel) version 20.2.5.20211109
  Fortran compiler flags: -O3 -ip -fp-model precise
  C compiler            : /opt/intel/oneapi/compiler/2022.0.1/linux/bin/intel64/icc (Intel) version 20.2.5.20211109
  C compiler flags      : -O3 -ip -fp-model precise -std=gnu99
  ELPA2 kernel          : AVX2
  Using MPI
  Using ScaLAPACK
  Using LibXC
  Using i-PI
  Using RLSY
  Linking against: /opt/intel/oneapi/mkl/2022.0.1/lib/intel64/libmkl_intel_lp64.so
                   /opt/intel/oneapi/mkl/2022.0.1/lib/intel64/libmkl_sequential.so
                   /opt/intel/oneapi/mkl/2022.0.1/lib/intel64/libmkl_core.so
                   /opt/intel/oneapi/mkl/2022.0.1/lib/intel64/libmkl_blacs_intelmpi_lp64.so
                   /opt/intel/oneapi/mkl/2022.0.1/lib/intel64/libmkl_scalapack_lp64.so

  Using       10 parallel tasks.
  Task        0 on host c21000127-lnx reporting.
  Task        1 on host c21000127-lnx reporting.
  Task        2 on host c21000127-lnx reporting.
  Task        3 on host c21000127-lnx reporting.
  Task        4 on host c21000127-lnx reporting.
  Task        5 on host c21000127-lnx reporting.
  Task        6 on host c21000127-lnx reporting.
  Task        7 on host c21000127-lnx reporting.
  Task        8 on host c21000127-lnx reporting.
  Task        9 on host c21000127-lnx reporting.

  Performing system and environment tests:
  *** Environment variable OMP_NUM_THREADS is not set
  *** For performance reasons you might want to set it to 1
  | Checking for ScaLAPACK...
  | Testing pdtran()...
  | All pdtran() tests passed.

  Obtaining array dimensions for all initial allocations:
  
  -----------------------------------------------------------------------
  Parsing control.in (first pass over file, find array dimensions only).
  The contents of control.in will be repeated verbatim below
  unless switched off by setting 'verbatim_writeout .false.' .
  in the first line of control.in .
  -----------------------------------------------------------------------
  
  xc               hse06 0.11
  hse_unit bohr-1
  charge           0.
  spin             none
  occupation_type  gaussian 0.1
  relativistic atomic_zora scalar
  sc_accuracy_rho       1E-6
  ################################################################################
  #
  #  FHI-aims code project
  #  Volker Blum, Fritz Haber Institute Berlin, 2009
  #
  #  Suggested "tight" defaults for Ba atom (to be pasted into control.in file)
  #
  #  The onset of the cutoff pot'l WAS set to 8 A by default, because the neutral
  #  Ba atom is a large atom. However, this is very expensive. The radius should be
  #  much smaller in real-world situations, where Ba will be ionic. Please check
  #  and reduce the cutoff radius explicitly.
  #
  #  2015/11/12 : f and g functions from tier2 added to default basis set choice.
  #               These functions make a difference in the "delta test".
  #               Reduced the default cutoff radius to 6AA. The free-atom 6s function
  #               requires more. However, 6AA is already VERY expensive for
  #               any production calculations. In fact, revisit this choice for
  #               ionic systems to see if a smaller cutoff radius will do.
  #
  ################################################################################
    species          Ba
  #     global species definitions
      nucleus        56
      mass           137.327
  #
      l_hartree      6
  #
      cut_pot        6.0  2.0  1.0
      basis_dep_cutoff    1e-4
  #
      radial_base    65  7.0
      radial_multiplier  2
      angular_grids specified
        division   0.6752  110
        division   0.9746  194
        division   1.2241  302
        division   1.3850  434
  #      division   1.4734  590
  #      division   1.6010  770
  #      division   4.8366  974
  #      outer_grid  974
        outer_grid  434
  ################################################################################
  #
  #  Definition of "minimal" basis
  #
  ################################################################################
  #     valence basis states
      valence      6  s   2.
      valence      5  p   6.
      valence      4  d  10.
  #     ion occupancy
      ion_occ      6  s   1.
      ion_occ      5  p   6.
      ion_occ      4  d  10.
  ################################################################################
  #
  #  Suggested additional basis functions. For production calculations,
  #  uncomment them one after another (the most important basis functions are
  #  listed first).
  #
  #  Constructed for dimers: 2.65, 3.00, 3.50, 4.40, 5.50 Ang
  #
  ################################################################################
  #  "First tier" - improvements: -1277.43 meV to -9.16 meV
       ionic 5 d auto
       ionic 4 f auto
       hydro 3 p 2.7
       hydro 4 s 3.3
  #  "Second tier" - improvements: -64.04 (!) meV to -0.25 meV
       hydro 4 f 5.8
       hydro 5 g 7.4
  #     hydro 4 d 4.5
  #     hydro 6 h 11.2
  #     hydro 5 p 6.6
  #     hydro 2 s 3.2
  #  "Third tier" - max. impr. -1.16 meV, min. impr. -0.08 meV
  #     hydro 5 f 7.4
  #     hydro 5 g 10.8
  #     hydro 4 d 2.3
  #     hydro 4 p 3.7
  #     hydro 5 s 4.0
  #  Further functions - impr. -0.35 meV and below
  #     hydro 5 d 3.5
  #     hydro 6 d 0.4
  #     hydro 2 p 2.5
  #     hydro 5 f 12
  #     hydro 6 d 8.8
  ################################################################################
  #
  #  FHI-aims code project
  #  Volker Blum, Fritz Haber Institute Berlin, 2009
  #
  #  Suggested "tight" defaults for Zr atom (to be pasted into control.in file)
  #
  ################################################################################
    species          Zr
  #     global species definitions
      nucleus        40
      mass           91.224
  #
      l_hartree      6
  #
      cut_pot        4.0  2.0  1.0
      basis_dep_cutoff    1e-4
  #
      radial_base    58  7.0
      radial_multiplier  2
      angular_grids specified
        division   0.3653   50
        division   0.8035  110
        division   1.2273  194
        division   1.4586  302
        division   1.6764  434
  #      division   1.9671  590
  #      division   2.1961  770
  #      division   2.3240  974
  #      division   3.4772 1202
  #      outer_grid  974
        outer_grid  434
  ################################################################################
  #
  #  Definition of "minimal" basis
  #
  ################################################################################
  #     valence basis states
      valence      5  s   2.
      valence      4  p   6.
      valence      4  d   2.
  #     ion occupancy
      ion_occ      5  s   1.
      ion_occ      4  p   6.
      ion_occ      4  d   1.
  ################################################################################
  #
  #  Suggested additional basis functions. For production calculations,
  #  uncomment them one after another (the most important basis functions are
  #  listed first).
  #
  #  Constructed for dimers: 1.9, 2.25, 3.00, 4.00 Ang
  #
  ################################################################################
  #  "First tier" - improvements: -605.96 meV to -18.06 meV
       hydro 4 f 7.2
       ionic 4 d auto
       ionic 5 p auto
       hydro 5 g 10.4
       ionic 5 s auto
  #  "Second tier" - improvements: -32.47 meV to -1.41 meV
  #     hydro 4 f 10.4
  #     hydro 6 h 14.8
  #     hydro 4 d 6.2
  #     hydro 4 p 4.4
  #     hydro 4 f 20
  #     hydro 5 s 6
  #  "Third tier" - improvements: -1.99 meV and lower.
  #     hydro 4 f 5.8
  #     hydro 5 g 10.8
  #     hydro 2 p 1
  #     hydro 3 d 8
  #     hydro 6 h 14.4
  #     hydro 1 s 0.9
  #  Further functions (approx -0.40 meV and below possible)
  ################################################################################
  #
  #  FHI-aims code project
  #  Volker Blum, Fritz Haber Institute Berlin, 2009
  #
  #  Suggested "tight" defaults for S atom (to be pasted into control.in file)
  #
  #  Revised Jan 04, 2011, following tests (SiC) done by Lydia Nemec:
  #     d and g functions of tier 2 now enabled by default.
  #
  ################################################################################
    species        S
  #     global species definitions
      nucleus             16
      mass                32.065
  #
      l_hartree           6
  #
      cut_pot             4.0          2.0  1.0
      basis_dep_cutoff    1e-4
  #
      radial_base         44 7.0
      radial_multiplier   2
      angular_grids       specified
        division   0.4665  110
        division   0.5810  194
        division   0.7139  302
        division   0.8274  434
  #      division   0.9105  590
  #      division   1.0975  770
  #      division   1.2028  974
  #      outer_grid  974
        outer_grid  434
  ################################################################################
  #
  #  Definition of "minimal" basis
  #
  ################################################################################
  #     valence basis states
      valence      3  s   2.
      valence      3  p   4.
  #     ion occupancy
      ion_occ      3  s   1.
      ion_occ      3  p   3.
  ################################################################################
  #
  #  Suggested additional basis functions. For production calculations,
  #  uncomment them one after another (the most important basis functions are
  #  listed first).
  #
  #  Constructed for dimers: 1.6 A, 1.9 A, 2.5 A, 3.25 A, 4.0 A
  #
  ################################################################################
  #  "First tier" - improvements: -652.81 meV to -45.53 meV
       ionic 3 d auto
       hydro 2 p 1.8
       hydro 4 f 7
       ionic 3 s auto
  #  "Second tier" - improvements: -30.20 meV to -1.74 meV
       hydro 4 d 6.2
       hydro 5 g 10.8
  #     hydro 4 p 4.9
  #     hydro 5 f 10
  #     hydro 1 s 0.8
  #  "Third tier" - improvements: -1.04 meV to -0.20 meV
  #     hydro 3 d 3.9
  #     hydro 3 d 2.7
  #     hydro 5 g 12
  #     hydro 4 p 10.4
  #     hydro 5 f 12.4
  #     hydro 2 s 1.9
  #  "Fourth tier" - improvements: -0.35 meV to -0.06 meV
  #     hydro 4 d 10.4
  #     hydro 4 p 7.2
  #     hydro 4 d 10
  #     hydro 5 g 19.2
  #     hydro 4 s 12
  
  ################################################################################
  #
  # For methods that use the localized form of the "resolution of identity" for
  # the two-electron Coulomb operator (RI_method LVL), particularly Hartree-Fock and
  # hybrid density functional calculations, the highest accuracy can be obtained by
  # uncommenting the line beginning with "for_aux"  below, thus adding an extra g radial
  # function to the construction of the product basis set for the expansion.
  # See Ref. New J. Phys. 17, 093020 (2015) for more information, particularly Figs. 1 and 6.
  #
  ################################################################################
  #
  # for_aux hydro 5 g 6.0
  
  -----------------------------------------------------------------------
  Completed first pass over input file control.in .
  -----------------------------------------------------------------------
  
  
  -----------------------------------------------------------------------
  Parsing geometry.in (first pass over file, find array dimensions only).
  The contents of geometry.in will be repeated verbatim below
  unless switched off by setting 'verbatim_writeout .false.' .
  in the first line of geometry.in .
  -----------------------------------------------------------------------
  
  #
  # This is the geometry file that corresponds to the current relaxation step.
  # If you do not want this file to be written, set the "write_restart_geometry" flag to .false.
  #  aims_uuid : 77CF5B30-1711-40A6-A134-2E66E010DBBB
  #
  atom       0.00000000      0.00000000      0.95301535 S
  atom      -0.00000000      0.00000000     -0.95301535 S
  #
  # What follows is the current estimated Hessian matrix constructed by the BFGS algorithm.
  # This is NOT the true Hessian matrix of the system.
  # If you do not want this information here, switch it off using the "hessian_to_restart_geometry" keyword.
  #
  trust_radius             0.2000000030
  hessian_file
  
  -----------------------------------------------------------------------
  Completed first pass over input file geometry.in .
  -----------------------------------------------------------------------
  

  Basic array size parameters:
  | Number of species                 :        3
  | Number of atoms                   :        2
  | Max. basis fn. angular momentum   :        4
  | Max. atomic/ionic basis occupied n:        6
  | Max. number of basis fn. types    :        3
  | Max. radial fns per species/type  :       12
  | Max. logarithmic grid size        :     1460
  | Max. radial integration grid size :      131
  | Max. angular integration grid size:      434
  | Max. angular grid division number :        8
  | Radial grid for Hartree potential :     1460
  | Number of spin channels           :        1

------------------------------------------------------------
          Reading file control.in.
------------------------------------------------------------

  XC: Using HSE-functional with OMEGA =  0.110000E+00 <units>.
  XC: For the actual units (bohr^-1 or Angstrom^-1), see below.
  hse_unit: Unit for the HSE06 hybrid functional screening parameter set to bohr^(-1).
  Charge =   0.000000E+00: Neutral system requested explicitly.
  Spin treatment: No spin polarisation.
  Occupation type: Gaussian broadening, width =   0.100000E+00 eV.
  Scalar relativistic treatment of kinetic energy: on-site free-atom approximation to ZORA.
  Convergence accuracy of self-consistent charge density:  0.1000E-05
 
  Reading configuration options for species Ba                  .
  | Found nuclear charge :  56.0000
  | Found atomic mass :    137.327000000000      amu
  | Found l_max for Hartree potential  :   6
  | Found cutoff potl. onset [A], width [A], scale factor :    6.00000    2.00000    1.00000
  | Threshold for basis-dependent cutoff potential is   0.100000E-03
  | Found data for basic radial integration grid :    65 points, outermost radius =    7.000 A
  | Found multiplier for basic radial grid :   2
  | Found angular grid specification: user-specified.
  | Specified grid contains     5 separate shells.
  | Check grid settings after all constraints further below.
  | Found free-atom valence shell :  6 s   2.000
  | Found free-atom valence shell :  5 p   6.000
  | Found free-atom valence shell :  4 d  10.000
  | Found free-ion valence shell :  6 s   1.000
  | Found free-ion valence shell :  5 p   6.000
  | Found free-ion valence shell :  4 d  10.000
  | Found ionic basis function :  5 d , default cutoff radius.
  | Found ionic basis function :  4 f , default cutoff radius.
  | Found hydrogenic basis function :  3 p   2.700
  | Found hydrogenic basis function :  4 s   3.300
  | Found hydrogenic basis function :  4 f   5.800
  | Found hydrogenic basis function :  5 g   7.400
  Species Ba                  : Missing cutoff potential type.
  Defaulting to exp(1/x)/(1-x)^2 type cutoff potential.
  Species Ba: No 'logarithmic' tag. Using default grid for free atom:
  | Default logarithmic grid data [bohr] : 0.1000E-03 0.1000E+03 0.1012E+01
  | Will include ionic basis functions of  1.0-fold positive Ba                   ion.
  Species Ba: On-site basis accuracy parameter (for Gram-Schmidt orthonormalisation) not specified.
  Using default value basis_acc =  0.1000000E-03.
  Species Ba                  : Using default innermost maximum threshold i_radial=  2 for radial functions.
  Species Ba                  : Default cutoff onset for free atom density etc. : 0.60000000E+01 AA.
  Species Ba                  : Basic radial grid will be enhanced according to radial_multiplier =   2, to contain   131 grid points.
 
  Reading configuration options for species Zr                  .
  | Found nuclear charge :  40.0000
  | Found atomic mass :    91.2240000000000      amu
  | Found l_max for Hartree potential  :   6
  | Found cutoff potl. onset [A], width [A], scale factor :    4.00000    2.00000    1.00000
  | Threshold for basis-dependent cutoff potential is   0.100000E-03
  | Found data for basic radial integration grid :    58 points, outermost radius =    7.000 A
  | Found multiplier for basic radial grid :   2
  | Found angular grid specification: user-specified.
  | Specified grid contains     6 separate shells.
  | Check grid settings after all constraints further below.
  | Found free-atom valence shell :  5 s   2.000
  | Found free-atom valence shell :  4 p   6.000
  | Found free-atom valence shell :  4 d   2.000
  | Found free-ion valence shell :  5 s   1.000
  | Found free-ion valence shell :  4 p   6.000
  | Found free-ion valence shell :  4 d   1.000
  | Found hydrogenic basis function :  4 f   7.200
  | Found ionic basis function :  4 d , default cutoff radius.
  | Found ionic basis function :  5 p , default cutoff radius.
  | Found hydrogenic basis function :  5 g  10.400
  | Found ionic basis function :  5 s , default cutoff radius.
  Species Zr                  : Missing cutoff potential type.
  Defaulting to exp(1/x)/(1-x)^2 type cutoff potential.
  Species Zr: No 'logarithmic' tag. Using default grid for free atom:
  | Default logarithmic grid data [bohr] : 0.1000E-03 0.1000E+03 0.1012E+01
  | Will include ionic basis functions of  2.0-fold positive Zr                   ion.
  Species Zr: On-site basis accuracy parameter (for Gram-Schmidt orthonormalisation) not specified.
  Using default value basis_acc =  0.1000000E-03.
  Species Zr                  : Using default innermost maximum threshold i_radial=  2 for radial functions.
  Species Zr                  : Default cutoff onset for free atom density etc. : 0.40000000E+01 AA.
  Species Zr                  : Basic radial grid will be enhanced according to radial_multiplier =   2, to contain   117 grid points.
 
  Reading configuration options for species S                   .
  | Found nuclear charge :  16.0000
  | Found atomic mass :    32.0650000000000      amu
  | Found l_max for Hartree potential  :   6
  | Found cutoff potl. onset [A], width [A], scale factor :    4.00000    2.00000    1.00000
  | Threshold for basis-dependent cutoff potential is   0.100000E-03
  | Found data for basic radial integration grid :    44 points, outermost radius =    7.000 A
  | Found multiplier for basic radial grid :   2
  | Found angular grid specification: user-specified.
  | Specified grid contains     5 separate shells.
  | Check grid settings after all constraints further below.
  | Found free-atom valence shell :  3 s   2.000
  | Found free-atom valence shell :  3 p   4.000
  | Found free-ion valence shell :  3 s   1.000
  | Found free-ion valence shell :  3 p   3.000
  | Found ionic basis function :  3 d , default cutoff radius.
  | Found hydrogenic basis function :  2 p   1.800
  | Found hydrogenic basis function :  4 f   7.000
  | Found ionic basis function :  3 s , default cutoff radius.
  | Found hydrogenic basis function :  4 d   6.200
  | Found hydrogenic basis function :  5 g  10.800
  Species S                   : Missing cutoff potential type.
  Defaulting to exp(1/x)/(1-x)^2 type cutoff potential.
  Species S : No 'logarithmic' tag. Using default grid for free atom:
  | Default logarithmic grid data [bohr] : 0.1000E-03 0.1000E+03 0.1012E+01
  | Will include ionic basis functions of  2.0-fold positive S                    ion.
  Species S : On-site basis accuracy parameter (for Gram-Schmidt orthonormalisation) not specified.
  Using default value basis_acc =  0.1000000E-03.
  Species S                   : Using default innermost maximum threshold i_radial=  2 for radial functions.
  Species S                   : Default cutoff onset for free atom density etc. : 0.40000000E+01 AA.
  Species S                   : Basic radial grid will be enhanced according to radial_multiplier =   2, to contain    89 grid points.
 
  Finished reading input file 'control.in'.
 
------------------------------------------------------------


------------------------------------------------------------
          Reading geometry description geometry.in.
------------------------------------------------------------
 * Large trust radius value found - resetting to the current value of max_atomic_move,      0.20000000 A.
  Found keyword 'hessian_file', indicating that this is the continuation of a structure optimization.
  However, the control.in file does not request the geometry to be optimized.
  Ignoring the request for a file 'hessian.aims' to be present.
  | The smallest distance between any two atoms is         1.90603070 AA.
  | The first atom of this pair is atom number                      1 .
  | The second atom of this pair is atom number                     2 .
  Input structure read successfully.
  The structure contains        2 atoms,  and a total of         32.000 electrons.

  Input geometry:
  | No unit cell requested.
  | Atomic structure:
  |       Atom                x [A]            y [A]            z [A]
  |    1: Species S             0.00000000        0.00000000        0.95301535
  |    2: Species S             0.00000000        0.00000000       -0.95301535

 
  Finished reading input file 'control.in'.
 

------------------------------------------------------------
          Reading geometry description geometry.in.
------------------------------------------------------------
 
  Consistency checks for stacksize environment parameter are next.
 
  | Maximum stacksize for task 0: unlimited
  | Maximum stacksize for task 1: unlimited
  | Maximum stacksize for task 2: unlimited
  | Maximum stacksize for task 3: unlimited
  | Maximum stacksize for task 4: unlimited
  | Maximum stacksize for task 5: unlimited
  | Maximum stacksize for task 6: unlimited
  | Maximum stacksize for task 7: unlimited
  | Maximum stacksize for task 8: unlimited
  | Maximum stacksize for task 9: unlimited
  | Current stacksize for task 0: unlimited
  | Current stacksize for task 1: unlimited
  | Current stacksize for task 2: unlimited
  | Current stacksize for task 3: unlimited
  | Current stacksize for task 4: unlimited
  | Current stacksize for task 5: unlimited
  | Current stacksize for task 6: unlimited
  | Current stacksize for task 7: unlimited
  | Current stacksize for task 8: unlimited
  | Current stacksize for task 9: unlimited
 
  Consistency checks for the contents of control.in are next.
 
  HSE06 screening parameters: omega_HF  =      0.11000000 bohr^-1, and
                              omega_PBE =      0.11000000 bohr^-1.
  MPI_IN_PLACE appears to work with this MPI implementation.
  | Keeping use_mpi_in_place .true. (see manual).
  Explicit treatment of the Coulomb operator is needed, but the RI method is not specified.
  Coulomb operator: Defaulting to 'LVL fast' resolution of identity - RI_type = LVL_fast
  Species Ba: Using default value for prodbas_acc =   1.000000E-04.
  Species Ba: Using default value max_l_prodbas =    20.
  Species Zr: Using default value for prodbas_acc =   1.000000E-04.
  Species Zr: Using default value max_l_prodbas =    20.
  Species S: Using default value for prodbas_acc =   1.000000E-04.
  Species S: Using default value max_l_prodbas =    20.
  Target number of points in a grid batch is not set. Defaulting to  100
  Method for grid partitioning is not set. Defaulting to parallel hash+maxmin partitioning.
  Batch size limit is not set. Defaulting to    200
  By default, will store active basis functions for each batch.
  If in need of memory, prune_basis_once .false. can be used to disable this option.
  communication_type for Hartree potential was not specified.
  Defaulting to calc_hartree .
  Defaulting to Pulay charge density mixer.
  Pulay mixer: Number of relevant iterations not set.
  Defaulting to    8 iterations.
  Pulay mixer: Number of initial linear mixing iterations not set.
  Defaulting to    0 iterations.
  Work space size for distributed Hartree potential not set.
  Defaulting to   0.200000E+03 MB.
  Mixing parameter for charge density mixing has not been set.
  Using default: charge_mix_param =     0.0500.
  The mixing parameter will be adjusted in iteration number     2 of the first full s.c.f. cycle only.
  Algorithm-dependent basis array size parameters:
  | n_max_pulay                         :        8
  Maximum number of self-consistency iterations not provided.
  Presetting  1000 iterations.
  Presetting      1001 iterations before the initial mixing cycle
  is restarted anyway using the sc_init_iter criterion / keyword.
  Presetting a factor      1.000 between actual scf density residual
  and density convergence criterion sc_accuracy_rho below which sc_init_iter
  takes no effect.
  Calculation of forces was not defined in control.in. No forces will be calculated.
  Geometry relaxation not requested: no relaxation will be performed.
  No accuracy limit for integral partition fn. given. Defaulting to  0.1000E-14.
  No threshold value for u(r) in integrations given. Defaulting to  0.1000E-05.
  No accuracy for occupation numbers given. Defaulting to  0.1000E-12.
  No threshold value for occupation numbers given. Defaulting to  0.0000E+00.
  No accuracy for fermi level given. Defaulting to  0.1000E-19.
  Maximum # of iterations to find E_F not set. Defaulting to  200.
  Preferred method for the eigenvalue solver ('KS_method') not specified in 'control.in'.
  Calling BLACS routine to test compilation state
  Since ScaLAPACK support is enabled, defaulting to ELPA (via ELSI).
  Will not use alltoall communication since running on < 1024 CPUs.
  Threshold for basis singularities not set.
  Default threshold for basis singularities:  0.1000E-04
  partition_type (choice of integration weights) for integrals was not specified.
  | Using a version of the partition function of Stratmann and coworkers ('stratmann_sparse').
  | At each grid point, the set of atoms used to build the partition table is smoothly restricted to
  | only those atoms whose free-atom density would be non-zero at that grid point.
  Partitioning for Hartree potential was not defined. Using partition_type for integrals.
  | Adjusted default value of keyword multip_moments_threshold to:       0.10000000E-11
  | This value may affect high angular momentum components of the Hartree potential in periodic systems.
  Threshold for auxiliary basis singularities not set.
  Default threshold for auxiliary basis singularities:  0.1000E-04
  No q(lm)/r^(l+1) cutoff set for long-range Hartree potential.
  | Using default value of  0.100000E-09 .
  | Verify using the multipole_threshold keyword.
  Defaulting to new monopole extrapolation.
  Density update method: automatic selection selected.
  Coulomb operator: Defaulting to screening threshold for four-center integrals:   0.100000E-06
  Coulomb operator: Defaulting to screening threshold for Coulomb matrix:   0.100000E-09
  Coulomb operator: Defaulting to 'LVL_fast' resolution of identity - RI_type = LVL_fast 
  No other resolution of identity version is supported for periodic boundary conditions at present.
  Coulomb operator: Defaulting to logarithmic spherical Bessel transform integrals (use_logsbt .true.).
  HSE with LVL_fast: Also defaulting to logarithmic spherical Bessel transform integrals.
  Charge integration errors on the 3D integration grid will be compensated
  by explicit normalization and distribution of residual charges.
  Use the "compensate_multipole_errors" flag to change this behaviour.
  LVL not implemented with density matrix yet
  -> switching to transformed overlap
  LVL probably works better with logsbt
  Default to 1D ("use_logsbt") integrations for auxiliary 2-center integrals.
  Default onset of logarithmic r-grid for SBT is -38.000000000000
  Default onset of logarithmic k-grid for SBT is -25.000000000000
  Default range of logarithmic r- and k-grid for SBT is  45.000000000000
  Default number of logarithmic r- and k-grid for SBT is   4096
  * Use logSBT for radial HSE integration, too
  Default of use_2d_corr is to use the efficient 2D distribution where possible
  Set 'collect_eigenvectors' to be '.true.' for use_density_matrix .false.
 
  Consistency checks for the contents of geometry.in are next.
 
  Number of empty states per atom not set in control.in - providing a guess from actual geometry.
  | Total number of empty states used during s.c.f. cycle:        6
  If you use a very high smearing, use empty_states (per atom!) in control.in to increase this value.

  Structure-dependent array size parameters: 
  | Maximum number of distinct radial functions  :       44
  | Maximum number of basis functions            :       78
  | Number of Kohn-Sham states (occupied + empty):       22
------------------------------------------------------------
  Setting Coulomb cut-width to  1.091868692359 * rcut.
  Setting Coulomb cutting radius rcut to  8.000000000000 A.

------------------------------------------------------------
          Preparing all fixed parts of the calculation.
------------------------------------------------------------
  Determining machine precision:
    2.225073858507201E-308
  Setting up grids for atomic and cluster calculations.

  Creating wave function, potential, and density for free atoms.

  Species: Ba

  List of occupied orbitals and eigenvalues:
    n    l              occ      energy [Ha]    energy [eV]
    1    0           2.0000     -1428.759176    -38878.5153
    2    0           2.0000      -218.156321     -5936.3355
    3    0           2.0000       -45.759571     -1245.1813
    4    0           2.0000        -8.961354      -243.8508
    5    0           2.0000        -1.235311       -33.6145
    6    0           2.0000        -0.117372        -3.1939
    2    1           6.0000      -195.503522     -5319.9215
    3    1           6.0000       -38.566500     -1049.4479
    4    1           6.0000        -6.648037      -180.9023
    5    1           6.0000        -0.686503       -18.6807
    3    2          10.0000       -28.146810      -765.9137
    4    2          10.0000        -3.294406       -89.6453


  Species: Zr

  List of occupied orbitals and eigenvalues:
    n    l              occ      energy [Ha]    energy [eV]
    1    0           2.0000      -668.722933    -18196.8768
    2    0           2.0000       -91.076987     -2478.3309
    3    0           2.0000       -14.873383      -404.7254
    4    0           2.0000        -1.994212       -54.2653
    5    0           2.0000        -0.156460        -4.2575
    2    1           6.0000       -81.194469     -2209.4139
    3    1           6.0000       -11.667913      -317.5001
    4    1           6.0000        -1.184217       -32.2242
    3    2          10.0000        -6.414313      -174.5423
    4    2           2.0000        -0.125045        -3.4027


  Species: S

  List of occupied orbitals and eigenvalues:
    n    l              occ      energy [Ha]    energy [eV]
    1    0           2.0000       -88.680731     -2413.1255
    2    0           2.0000        -7.781719      -211.7513
    3    0           2.0000        -0.633662       -17.2428
    2    1           6.0000        -5.751976      -156.5192
    3    1           4.0000        -0.257086        -6.9957


  Adding cutoff potential to free-atom effective potential.
  Creating fixed part of basis set: Ionic, confined, hydrogenic.
 
  Ba                   ion:

  List of free ionic orbitals and eigenvalues:
    n    l      energy [Ha]    energy [eV]
    1    0     -1428.980456    -38884.5366
    2    0      -218.370478     -5942.1630
    3    0       -45.972614     -1250.9785
    4    0        -9.173714      -249.6295
    5    0        -1.445296       -39.3285
    6    0        -0.278663        -7.5828
    2    1      -195.717553     -5325.7456
    3    1       -38.779502     -1055.2439
    4    1        -6.860306      -186.6784
    5    1        -0.894905       -24.3516
    3    2       -28.359770      -771.7086
    4    2        -3.506466       -95.4158


  List of ionic basis orbitals and eigenvalues:
    n    l      energy [Ha]    energy [eV]    outer radius [A]
    5    2        -0.260030        -7.0758       7.007670
    4    3        -0.142743        -3.8842       7.093864

 
  Ba                   hydrogenic:
 
  List of hydrogenic basis orbitals: 
    n    l      effective z      eigenvalue [eV]  inner max. [A]     outer max. [A]     outer radius [A]   
    3    1         2.700000       -11.0183           0.585865           2.360755           7.358861
    4    0         3.300000        -9.1387           0.118110           3.896996           7.449375
    4    3         5.800000       -28.6057           1.465516           1.465516           5.905331
    5    4         7.400000       -29.8017           1.782126           1.782126           6.354768
 
 
  Zr                   ion:

  List of free ionic orbitals and eigenvalues:
    n    l      energy [Ha]    energy [eV]
    1    0      -669.421026    -18215.8729
    2    0       -91.769634     -2497.1788
    3    0       -15.560469      -423.4219
    4    0        -2.663352       -72.4735
    5    0        -0.640863       -17.4388
    2    1       -81.886574     -2228.2470
    3    1       -12.354892      -336.1937
    4    1        -1.844122       -50.1811
    3    2        -7.101714      -193.2475
    4    2        -0.726930       -19.7808


  List of ionic basis orbitals and eigenvalues:
    n    l      energy [Ha]    energy [eV]    outer radius [A]
    4    2        -0.726920       -19.7805       5.008334
    5    1        -0.469561       -12.7774       5.455794
    5    0        -0.640774       -17.4363       5.389503

 
  Zr                   hydrogenic:
 
  List of hydrogenic basis orbitals: 
    n    l      effective z      eigenvalue [eV]  inner max. [A]     outer max. [A]     outer radius [A]   
    4    3         7.200000       -44.0822           1.169212           1.169212           5.008334
    5    4        10.400000       -58.8635           1.273673           1.273673           4.887365
 
 
  S                    ion:

  List of free ionic orbitals and eigenvalues:
    n    l      energy [Ha]    energy [eV]
    1    0       -89.703778     -2440.9640
    2    0        -8.775428      -238.7916
    3    0        -1.470343       -40.0101
    2    1        -6.747660      -183.6132
    3    1        -1.048627       -28.5346


  List of ionic basis orbitals and eigenvalues:
    n    l      energy [Ha]    energy [eV]    outer radius [A]
    3    2        -0.495605       -13.4861       5.386362
    3    0        -1.470336       -40.0099       3.967934

 
  S                    hydrogenic:
 
  List of hydrogenic basis orbitals: 
    n    l      effective z      eigenvalue [eV]  inner max. [A]     outer max. [A]     outer radius [A]   
    2    1         1.800000       -11.0118           1.168531           1.168531           5.452614
    4    3         7.000000       -41.6672           1.212182           1.212182           5.066981
    4    2         6.200000       -32.6848           0.582121           1.814567           5.386362
    5    4        10.800000       -63.4785           1.227092           1.227092           4.766538
 
  Creating atomic-like basis functions for current effective potential.

  Species Ba                  :

  List of atomic basis orbitals and eigenvalues:
    n    l      energy [Ha]    energy [eV]    outer radius [A]
    1    0     -1428.759176    -38878.5153       0.181180
    2    0      -218.156321     -5936.3355       0.481781
    3    0       -45.759571     -1245.1813       1.053516
    4    0        -8.961354      -243.8508       2.303735
    5    0        -1.235311       -33.6145       5.905331
    6    0        -0.117372        -3.1939       7.358861
    2    1      -195.503522     -5319.9215       0.493705
    3    1       -38.566500     -1049.4479       1.119920
    4    1        -6.648037      -180.9023       2.603304
    5    1        -0.686503       -18.6807       6.838410
    3    2       -28.146810      -765.9137       1.250174
    4    2        -3.294406       -89.6453       3.490975


  Species Zr                  :

  List of atomic basis orbitals and eigenvalues:
    n    l      energy [Ha]    energy [eV]    outer radius [A]
    1    0      -668.722933    -18196.8768       0.259930
    2    0       -91.076987     -2478.3309       0.725827
    3    0       -14.873383      -404.7254       1.771771
    4    0        -1.994212       -54.2653       4.541709
    5    0        -0.156460        -4.2575       5.455794
    2    1       -81.194469     -2209.4139       0.743792
    3    1       -11.667913      -317.5001       1.930067
    4    1        -1.184217       -32.2242       5.008334
    3    2        -6.414313      -174.5423       2.434714
    4    2        -0.125045        -3.4027       5.389503


  Species S                   :

  List of atomic basis orbitals and eigenvalues:
    n    l      energy [Ha]    energy [eV]    outer radius [A]
    1    0       -88.680731     -2413.1255       0.682391
    2    0        -7.781719      -211.7513       2.289014
    3    0        -0.633662       -17.2428       5.256262
    2    1        -5.751976      -156.5192       2.555240
    3    1        -0.257086        -6.9957       5.386362

  Assembling full basis from fixed parts.
  | Species Ba :   atomic orbital   1 s accepted.
  | Species Ba :   atomic orbital   2 s accepted.
  | Species Ba :   atomic orbital   3 s accepted.
  | Species Ba :   atomic orbital   4 s accepted.
  | Species Ba :   atomic orbital   5 s accepted.
  | Species Ba :   atomic orbital   6 s accepted.
  | Species Ba :    hydro orbital   4 s accepted.
  | Species Ba :   atomic orbital   2 p accepted.
  | Species Ba :   atomic orbital   3 p accepted.
  | Species Ba :   atomic orbital   4 p accepted.
  | Species Ba :   atomic orbital   5 p accepted.
  | Species Ba :    hydro orbital   3 p accepted.
  | Species Ba :   atomic orbital   3 d accepted.
  | Species Ba :   atomic orbital   4 d accepted.
  | Species Ba :    ionic orbital   5 d accepted.
  | Species Ba :    hydro orbital   4 f accepted.
  | Species Ba :    ionic orbital   4 f accepted.
  | Species Ba :    hydro orbital   5 g accepted.
  | Species Zr :   atomic orbital   1 s accepted.
  | Species Zr :   atomic orbital   2 s accepted.
  | Species Zr :   atomic orbital   3 s accepted.
  | Species Zr :   atomic orbital   4 s accepted.
  | Species Zr :    ionic orbital   5 s accepted.
  | Species Zr :   atomic orbital   5 s accepted.
  | Species Zr :   atomic orbital   2 p accepted.
  | Species Zr :   atomic orbital   3 p accepted.
  | Species Zr :   atomic orbital   4 p accepted.
  | Species Zr :    ionic orbital   5 p accepted.
  | Species Zr :   atomic orbital   3 d accepted.
  | Species Zr :    ionic orbital   4 d accepted.
  | Species Zr :   atomic orbital   4 d accepted.
  | Species Zr :    hydro orbital   4 f accepted.
  | Species Zr :    hydro orbital   5 g accepted.
  | Species S :   atomic orbital   1 s accepted.
  | Species S :   atomic orbital   2 s accepted.
  | Species S :    ionic orbital   3 s accepted.
  | Species S :   atomic orbital   3 s accepted.
  | Species S :   atomic orbital   2 p accepted.
  | Species S :   atomic orbital   3 p accepted.
  | Species S :    hydro orbital   2 p accepted.
  | Species S :    ionic orbital   3 d accepted.
  | Species S :    hydro orbital   4 d accepted.
  | Species S :    hydro orbital   4 f accepted.
  | Species S :    hydro orbital   5 g accepted.
 
  Basis size parameters after reduction:
  | Total number of radial functions:       44
  | Total number of basis functions :       78
 
  Per-task memory consumption for arrays in subroutine allocate_ext:
  |          16.450124MB.
  Testing on-site integration grid accuracy.
  |  Species  Function  <phi|h_atom|phi> (log., in eV)  <phi|h_atom|phi> (rad., in eV)
           1        1             -38878.5152842456             -38878.5102682711
           1        2              -5936.3355416432              -5936.3354463181
           1        3              -1245.1812725370              -1245.1812651319
           1        4               -243.8508498583               -243.8508475766
           1        5                -33.6145129113                -33.6145123744
           1        6                 -3.1953474132                 -3.1940995993
           1        7                  1.7217240859                  1.7400532086
           1        8              -5319.9215180603              -5319.9215128547
           1        9              -1049.4478540965              -1049.4478516474
           1       10               -180.9022912879               -180.9022896989
           1       11                -18.6806852844                -18.6806849603
           1       12                 -0.6584997172                 -0.6579606663
           1       13               -765.9136710812               -765.9136703559
           1       14                -89.6453457527                -89.6453448903
           1       15                 -1.8801763382                 -1.8802515933
           1       16                  8.1569476582                  8.1569486797
           1       17                  8.6054070843                  8.6053383614
           1       18                 17.5600091881                 17.5599879188
           2       19             -18196.8768435665             -18196.8755705220
           2       20              -2478.3309144498              -2478.3308916069
           2       21               -404.7253557491               -404.7253534742
           2       22                -54.2652640714                -54.2652635286
           2       23                 -3.7119764275                 -3.7119846577
           2       24                  4.5875772639                  4.5868905659
           2       25              -2209.4139097225              -2209.4139071812
           2       26               -317.5000788444               -317.5000777556
           2       27                -32.2241784576                -32.2241781542
           2       28                 -0.3319152745                 -0.3319660629
           2       29               -174.5423275335               -174.5423272575
           2       30                 -3.0504029429                 -3.0504025329
           2       31                  4.9970437712                  4.9966978803
           2       32                 16.8632595236                 16.8632598612
           2       33                 37.0867992037                 37.0867988501
           3       34              -2413.1254568977              -2413.1254096663
           3       35               -211.7513411281               -211.7513404762
           3       36                -16.9725280787                -16.9725279206
           3       37                  7.6024436204                  7.6024549059
           3       38               -156.5192206929               -156.5192205451
           3       39                 -6.9959757887                 -6.9959777655
           3       40                  6.8896462808                  6.8895564741
           3       41                  6.0214250550                  6.0214220200
           3       42                 19.6206468977                 19.6206494558
           3       43                 24.7008710786                 24.7008710738
           3       44                 47.5292252001                 47.5292260486

  Preparing densities etc. for the partition functions (integrals / Hartree potential).

  Preparations completed.
  max(cpu_time)          :      0.474 s.
  Wall clock time (cpu1) :      0.474 s.
------------------------------------------------------------

------------------------------------------------------------
          Begin self-consistency loop: Initialization.

          Date     :  20220515, Time     :  222855.223
------------------------------------------------------------

  Initializing index lists of integration centers etc. from given atomic structure:
  | Number of centers in hartree potential         :         2
  | Number of centers in hartree multipole         :         2
  | Number of centers in electron density summation:         2
  | Number of centers in basis integrals           :         2
  | Number of centers in integrals                 :         2
  | Number of centers in hamiltonian               :         2
  * Using 10 tasks for Scalapack Eigenvalue solver.
  Detailed listing of tasks and assigned k-points:
  (for non-periodic systems, the "k-point" denotes an internal label only)
   Task     0 k-point     1 on c21000127-lnx
   Task     1 k-point     1 on c21000127-lnx
   Task     2 k-point     1 on c21000127-lnx
   Task     3 k-point     1 on c21000127-lnx
   Task     4 k-point     1 on c21000127-lnx
   Task     5 k-point     1 on c21000127-lnx
   Task     6 k-point     1 on c21000127-lnx
   Task     7 k-point     1 on c21000127-lnx
   Task     8 k-point     1 on c21000127-lnx
   Task     9 k-point     1 on c21000127-lnx
  Tasks:    10 split into      5 X      2 BLACS grid
  Calculating block size based on n_basis =           78  max_nprow =            5  max_npcol =            2
  ScaLAPACK block size set to:            8
  Allocating        0.005 MB for ovlp
  Allocating        0.005 MB for ham
  Allocating        0.005 MB for eigenvec
  Required Scalapack workspace - INTEGER:            1  REAL:             1
  Partitioning the integration grid into batches with parallel hashing+maxmin method.
  | Number of batches:      641
  | Maximal batch size:     181
  | Minimal batch size:      66
  | Average batch size:      76.449
  | Standard deviation of batch sizes:      10.430

  Integration load balanced across    10 MPI tasks.
  Work distribution over tasks is as follows:
  Task     0 has       4889 integration points.
  Task     1 has       4889 integration points.
  Task     2 has       4905 integration points.
  Task     3 has       5015 integration points.
  Task     4 has       4845 integration points.
  Task     5 has       4842 integration points.
  Task     6 has       4984 integration points.
  Task     7 has       4896 integration points.
  Task     8 has       4893 integration points.
  Task     9 has       4846 integration points.
  Initializing partition tables, free-atom densities, potentials, etc. across the integration grid (initialize_grid_storage).
  | initialize_grid_storage: Actual outermost partition radius vs. multipole_radius_free
  | (-- VB: in principle, multipole_radius_free should be larger, hence this output)
  | Species        1: Confinement radius =              8.000000000000000 AA, multipole_radius_free =              8.016324652127386 AA.
  | Species        1: outer_partition_radius set to              8.016324652127386 AA .
  | Species        2: Confinement radius =              6.000000000000000 AA, multipole_radius_free =              6.016333975203386 AA.
  | Species        2: outer_partition_radius set to              6.016333975203386 AA .
  | Species        3: Confinement radius =              6.000000000000000 AA, multipole_radius_free =              6.012827091137924 AA.
  | Species        3: outer_partition_radius set to              6.012827091137924 AA .
  | The sparse table of interatomic distances needs          0.04 kbyte instead of         0.03 kbyte of memory.
  | Using the partition_type stratmann_smoother will reduce your memory usage.
  | Net number of integration points:    49004
  | of which are non-zero points    :    47348
  Renormalizing the initial density to the exact electron count on the 3D integration grid.
  | Initial density: Formal number of electrons (from input files) :      32.0000000000
  | Integrated number of electrons on 3D grid     :      32.0000000472
  | Charge integration error                      :       0.0000000472
  | Normalization factor for density and gradient :       0.9999999985
  Renormalizing the free-atom superposition density to the exact electron count on the 3D integration grid.
  | Formal number of electrons (from input files) :      32.0000000000
  | Integrated number of electrons on 3D grid     :      32.0000000472
  | Charge integration error                      :       0.0000000472
  | Normalization factor for density and gradient :       0.9999999985
  Obtaining max. number of non-zero basis functions in each batch (get_n_compute_maxes).
  | Maximal number of non-zero basis functions:       77 in task     0
  | Maximal number of non-zero basis functions:       77 in task     1
  | Maximal number of non-zero basis functions:       77 in task     2
  | Maximal number of non-zero basis functions:       77 in task     3
  | Maximal number of non-zero basis functions:       77 in task     4
  | Maximal number of non-zero basis functions:       77 in task     5
  | Maximal number of non-zero basis functions:       77 in task     6
  | Maximal number of non-zero basis functions:       77 in task     7
  | Maximal number of non-zero basis functions:       77 in task     8
  | Maximal number of non-zero basis functions:       77 in task     9
  Selecting the method for density update.
  Loop over occupied states selected for charge density update.
  Allocating        0.013 MB for KS_eigenvector
  Integrating Hamiltonian matrix: batch-based integration.
  Time summed over all CPUs for integration: real work        0.131 s, elapsed        0.135 s
  Integrating overlap matrix.
  Time summed over all CPUs for integration: real work        0.046 s, elapsed        0.047 s
  Deallocating overlap matrix.

  Updating Kohn-Sham eigenvalues and eigenvectors using ELSI and the ELPA eigensolver.
  Overlap matrix is not singular
  | Lowest and highest eigenvalues :  0.8598E-02,  0.1991E+01
  Finished singularity check of overlap matrix
  | Time :     0.001 s
  Starting ELPA eigensolver
  Finished Cholesky decomposition
  | Time :     0.001 s
  Finished transformation to standard eigenproblem
  | Time :     0.001 s
  Finished solving standard eigenproblem
  | Time :     0.001 s
  Finished back-transformation of eigenvectors
  | Time :     0.000 s

  Obtaining occupation numbers and chemical potential using ELSI.
  | Chemical potential (Fermi level):    -5.71116004 eV
  Writing Kohn-Sham eigenvalues.

  State    Occupation    Eigenvalue [Ha]    Eigenvalue [eV]
      1       2.00000         -88.692731        -2413.45199
      2       2.00000         -88.692731        -2413.45199
      3       2.00000          -7.795693         -212.13159
      4       2.00000          -7.795556         -212.12786
      5       2.00000          -5.767936         -156.95354
      6       2.00000          -5.767203         -156.93357
      7       2.00000          -5.764748         -156.86677
      8       2.00000          -5.764748         -156.86677
      9       2.00000          -5.764691         -156.86523
     10       2.00000          -5.764691         -156.86523
     11       2.00000          -0.791186          -21.52927
     12       2.00000          -0.577593          -15.71710
     13       2.00000          -0.375759          -10.22493
     14       2.00000          -0.343473           -9.34637
     15       2.00000          -0.343473           -9.34637
     16       1.00000          -0.209881           -5.71116
     17       1.00000          -0.209881           -5.71116
     18       0.00000          -0.054447           -1.48159
     19       0.00000           0.072290            1.96712
     20       0.00000           0.104762            2.85071
     21       0.00000           0.104762            2.85071
     22       0.00000           0.113487            3.08813

  Highest occupied state (VBM) at     -5.71116004 eV
  | Occupation number:      1.00000000

  Lowest unoccupied state (CBM) at    -5.71116004 eV
  | Occupation number:      1.00000000

  Overall HOMO-LUMO gap:      0.00000000 eV.
  This system has fractional occupation numbers. Thus, it is a degenerate system
  within the approximate finite broadening function (occupation_type)
  applied to determine the occupation numbers.
  This may not be harmful. However, for some systems (free atoms), a different, non-degenerate
  ground state might exist by using a smaller broadening (see keyword occupation_type).
  Calculating total energy contributions from superposition of free atom densities.

  Total energy components:
  | Sum of eigenvalues            :        -460.42418454 Ha      -12528.77951859 eV
  | XC energy correction          :         -51.14285218 Ha       -1391.66781512 eV
  | XC potential correction       :          66.09098428 Ha        1798.42718522 eV
  | Free-atom electrostatic energy:        -354.04896254 Ha       -9634.16245153 eV
  | Hartree energy correction     :           0.00000000 Ha           0.00000000 eV
  | Entropy correction            :          -0.00207336 Ha          -0.05641896 eV
  | ---------------------------
  | Total energy                  :        -799.52501498 Ha      -21756.18260002 eV
  | Total energy, T -> 0          :        -799.52708834 Ha      -21756.23901898 eV  <-- do not rely on this value for anything but (periodic) metals
  | Electronic free energy        :        -799.52916170 Ha      -21756.29543794 eV

  Derived energy quantities:
  | Kinetic energy                :         802.54100080 Ha       21838.25174985 eV
  | Electrostatic energy          :       -1550.92316360 Ha      -42202.76653476 eV
  | Energy correction for multipole
  | error in Hartree potential    :           0.00000000 Ha           0.00000000 eV
  | Sum of eigenvalues per atom                           :       -6264.38975929 eV
  | Total energy (T->0) per atom                          :      -10878.11950949 eV  <-- do not rely on this value for anything but (periodic) metals
  | Electronic free energy per atom                       :      -10878.14771897 eV
  
  --------------------------------------------
  Constructing auxiliary basis (full product) ...
  
  Product basis:
  | charge radius: extent of product basis function
  | field radius: extent of its Coulomb potential
  | Species   l  charge radius    field radius
  |    S      0     4.651410 A      4.651410 A
  |    S      0     4.944596 A      6.630597 A
  |    S      0     5.066981 A      6.630597 A
  |    S      0     5.192396 A      6.161652 A
  |    S      0     5.320915 A     15.225837 A
  |    S      0     5.320915 A     21.440751 A
  |    S      0     5.386362 A     23.356335 A
  |    S      0     5.386362 A     24.526844 A
  |    S      0     5.452614 A     25.133916 A
  |    S      0     5.452614 A     25.133916 A
  |    S      1     5.005415 A      5.005415 A
  |    S      1     5.005415 A      5.005415 A
  |    S      1     5.129305 A      6.391826 A
  |    S      1     5.256262 A      9.805019 A
  |    S      1     5.386362 A     16.185548 A
  |    S      1     5.452614 A     21.971438 A
  |    S      1     5.386362 A     23.072542 A
  |    S      1     5.452614 A     24.228829 A
  |    S      1     5.452614 A     25.133916 A
  |    S      1     5.452614 A     25.443063 A
  |    S      2     4.708622 A      4.708622 A
  |    S      2     5.066981 A      5.066981 A
  |    S      2     5.192396 A      7.772716 A
  |    S      2     5.256262 A      8.676728 A
  |    S      2     5.320915 A     12.218413 A
  |    S      2     5.386362 A     19.924367 A
  |    S      2     5.452614 A     22.792198 A
  |    S      2     5.452614 A     24.228829 A
  |    S      2     5.452614 A     25.133916 A
  |    S      2     5.452614 A     25.756013 A
  |    S      3     5.005415 A      5.005415 A
  |    S      3     5.192396 A      5.192396 A
  |    S      3     5.320915 A      6.470445 A
  |    S      3     5.320915 A      7.401774 A
  |    S      3     5.386362 A     12.830742 A
  |    S      3     5.386362 A     15.988884 A
  |    S      3     5.320915 A     21.704473 A
  |    S      3     5.452614 A     23.934435 A
  |    S      3     5.452614 A     25.133916 A
  |    S      3     5.452614 A     25.756013 A
  |    S      4     5.066981 A      5.066981 A
  |    S      4     5.192396 A      5.192396 A
  |    S      4     5.320915 A      7.048535 A
  |    S      4     5.386362 A     15.040835 A
  |    S      4     5.452614 A     21.180234 A
  |    S      4     5.452614 A     23.643618 A
  |    S      4     5.452614 A     23.934435 A
  |    S      4     5.452614 A     24.828524 A
  |    S      5     5.129305 A      5.587574 A
  |    S      5     5.192396 A     14.858080 A
  |    S      5     5.192396 A     20.417522 A
  |    S      5     5.256262 A     22.792198 A
  |    S      5     5.256262 A     24.228829 A
  |    S      6     5.129305 A     14.677546 A
  |    S      6     5.192396 A     19.924367 A
  |    S      6     5.129305 A     21.440751 A
  |    S      6     5.129305 A     23.356335 A
  |    S      7     4.884517 A     20.169437 A
  |    S      7     4.944596 A     22.515260 A
  |    S      8     4.708622 A     20.417522 A

  | Shrink_full_auxil_basis : there are       60  radial auxiliary wave functions
                            accepted and      90 rejected.
  | Shrink_full_auxil_basis : there are totally                 772 partial auxiliary wave functions.
  prodbas_tasks_distribution_pbc not up to date - distributing tasks.
 
  | Maximal number of product basis functions per thread :    80    80
 
  | Number of local auxiliary basis funcs on node     0 :     80
  | Number of local auxiliary basis funcs on node     1 :     80
  | Number of local auxiliary basis funcs on node     2 :     80
  | Number of local auxiliary basis funcs on node     3 :     80
  | Number of local auxiliary basis funcs on node     4 :     80
  | Number of local auxiliary basis funcs on node     5 :     80
  | Number of local auxiliary basis funcs on node     6 :     80
  | Number of local auxiliary basis funcs on node     7 :     80
  | Number of local auxiliary basis funcs on node     8 :     68
  | Number of local auxiliary basis funcs on node     9 :     64
  Parallel distribution of product basis not up to date - distributing tasks.
 
  | Maximal number of product basis functions per thread :    80    80
 
  | Minimal total memory requirement for three-center overlap :       0.028 Gbs
  | Number of local auxiliary basis functions on task:      0    80
  | Number of local auxiliary basis functions on task:      1    80
  | Number of local auxiliary basis functions on task:      2    80
  | Number of local auxiliary basis functions on task:      3    80
  | Number of local auxiliary basis functions on task:      4    80
  | Number of local auxiliary basis functions on task:      5    80
  | Number of local auxiliary basis functions on task:      6    80
  | Number of local auxiliary basis functions on task:      7    80
  | Number of local auxiliary basis functions on task:      8    68
  | Number of local auxiliary basis functions on task:      9    64
  | 2D aux task distribution:      2 X      5
  | 2D block size (nb_aux_2d):     64
  | Task at    0 x    0 gets    388 x    192 entries of 2D aux
  | Task at    0 x    1 gets    388 x    192 entries of 2D aux
  | Task at    0 x    2 gets    388 x    132 entries of 2D aux
  | Task at    0 x    3 gets    388 x    128 entries of 2D aux
  | Task at    0 x    4 gets    388 x    128 entries of 2D aux
  | Task at    1 x    0 gets    384 x    192 entries of 2D aux
  | Task at    1 x    1 gets    384 x    192 entries of 2D aux
  | Task at    1 x    2 gets    384 x    132 entries of 2D aux
  | Task at    1 x    3 gets    384 x    128 entries of 2D aux
  | Task at    1 x    4 gets    384 x    128 entries of 2D aux
  -----------------------------------------
  --- Initializing Fock matrix calculations
  -----------------------------------------
  screening_threshold (crit_val) =  0.000000100000
  coul_mat_threshold =  0.000000000100
  Trying to make the workload more even by internally splitting atoms into fractions
  Atom:            1  Basis/atom:    39.0000000000000
  Atom:            2  Basis/atom:    39.0000000000000
  -----------------------------------------------------
  Dividing atoms among tasks for exact exchange energy:
  Atom:     1 Weight:   386.00
  Atom:     2 Weight:   386.00
  Atom:     3 Weight:   386.00
  Atom:     4 Weight:   386.00

  Average weight per task:   154.40

  Number of "big" (above average) atoms  :     4
  Number of "small" (below average) atoms:     0
  All atoms have above average work per task
  Atoms will be divided among tasks to get best load distribution

  Atom division among tasks:
  Atom     1: (initial) task:     0, # of tasks:     3
  Atom     2: (initial) task:     3, # of tasks:     3
  Atom     3: (initial) task:     6, # of tasks:     2
  Atom     4: (initial) task:     8, # of tasks:     2

  -----------------------------------------------------
 There are now:            4  "atoms" instead of:            2
       new       old  bas/atom
         1         1        15
         2         1        24
         3         2        15
         4         2        24
  Number of super-cells in X Y Z:       0       0       0
  Number of atoms pairs total:           16
  Atom pair distribution:
  Cell:        0       0       0 atom pairs:       16
 sparsity of pfbvk:   1.000000
  Number of atoms pairs in BvK cells:           16
  Initializing work distribution for fock matrix calculation
  Task     0 : Coulomb matrix distribution changed.
  Task     1 : Coulomb matrix distribution changed.
  Task     2 : Coulomb matrix distribution changed.
  Task     3 : Coulomb matrix distribution changed.
  Task     4 : Coulomb matrix distribution changed.
  Task     5 : Coulomb matrix distribution changed.
  Task     6 : Coulomb matrix distribution changed.
  Task     7 : Coulomb matrix distribution changed.
  Task     8 : Coulomb matrix distribution changed.
  Task     9 : Coulomb matrix distribution changed.
  Overall Coulomb matrix distribution changed.
  Coulomb matrix subdivision:
  Task     0 atom     1 has Coulomb matrix rows          1 to        128
  Task      0: my_n_atoms2:      1 my_atom_list:      1
  Task      1: my_n_atoms2:      1 my_atom_list:      1
  Task      2: my_n_atoms2:      1 my_atom_list:      1
  Task      3: my_n_atoms2:      1 my_atom_list:      2
  Task      4: my_n_atoms2:      1 my_atom_list:      2
  Task      5: my_n_atoms2:      1 my_atom_list:      2
  Task      6: my_n_atoms2:      1 my_atom_list:      3
  Task      7: my_n_atoms2:      1 my_atom_list:      3
  Task      8: my_n_atoms2:      1 my_atom_list:      4
  Task      9: my_n_atoms2:      1 my_atom_list:      4
  Task      0: my_n_atom_pairs:      1
  Task      1: my_n_atom_pairs:      1
  Task      2: my_n_atom_pairs:      2
  Task      3: my_n_atom_pairs:      1
  Task      4: my_n_atom_pairs:      1
  Task      5: my_n_atom_pairs:      2
  Task      6: my_n_atom_pairs:      2
  Task      7: my_n_atom_pairs:      2
  Task      8: my_n_atom_pairs:      2
  Task      9: my_n_atom_pairs:      2
  --- Initializing LVL triples, type HSE
  | Storage requirements for basis-basbas products (processor-local):
  |   Species Ba: n_prodsfn:     0; storage:        0.00 MiB.
  |   Species Zr: n_prodsfn:     0; storage:        0.00 MiB.
  |   Species S: n_prodsfn:  1250; storage:       39.06 MiB.

  --- Initializing Coulomb matrix calculations, type HSE
  Preparing TB like auxiliary 2-center HSE-pot matrix
  SBT integration errors (all should be 'small'):
  large logFT aliasing -> increase N/lnrange
  large SBT aliasing -> decrease lnk0 & increase lnk0+lnrange
  large SBT ringing -> decrease lnr0 & increase lnr0+lnrange
  |            El't  L: logFT-al.   small-k   large-k   small-r   large-r
  | Need to store  4713 splines of   258 points taking       9576 KiB.
  | Spline reduction from  4096 to   258 points by (cutting and)     1 x coarsening gives error:  0.00E+00
  | Maximum value outside interaction range:  8.24E-14
  Finished with initialize_tb_auxmat/lvl_triples, time:        0.365
  Upper limit for memory consumption per node [GB] for Coulomb matrices if no compression occurs:       0.010
  Upper limit for temporary arrays in Coulomb matrix initalization [GB]:      3.00
  --- Calculating Coulomb matrices
  Allocating        1.137 MB for aux_mat
  Max. memory consumption per node for Coulomb matrix [GB]:      0.01
  Time to calculate Coulomb Matrices   :        0.038
   Number of Coulomb matrix elements:
  | Task     0 total:          98816, > threshold:           7493, stored:          98816
  | Task     1 total:          99588, > threshold:           5911, stored:          99588
  | Task     2 total:          99588, > threshold:           4131, stored:          99588
  | Task     3 total:          98816, > threshold:           7493, stored:          98816
  | Task     4 total:          99588, > threshold:           5911, stored:          99588
  | Task     5 total:          99588, > threshold:           4131, stored:          99588
  | Task     6 total:         148996, > threshold:          10727, stored:         148996
  | Task     7 total:         148996, > threshold:           6808, stored:         148996
  | Task     8 total:         148996, > threshold:          10727, stored:         148996
  | Task     9 total:         148996, > threshold:           6808, stored:         148996
  --- Done init_fock_matrix_calculations
  Max. memory per node for ovlp3fn matrices:        0.019 GB
  Total memory for ovlp3fn matrices:        0.019 GB
  Size of ovlp3fn for atom     225       1     386
  --- Calculating OVLP3FN
  --- Done calculating OVLP3FN, time:        2.230
  Compare n_pairs with n_super       0       1
  --- Done getting norm of OVLP3FN, time:        0.022
  Atomic logSBT for 2-center HSE-pot matrix    :  max(cpu_time)    wall_clock(cpu1)
  | TB initialization                           :        0.193 s           0.194 s
  | TB usage                                    :        0.005 s           0.005 s

  Atomic logSBT for LVL-triples                :  max(cpu_time)    wall_clock(cpu1)
  | Multiplication with kernel                  :        0.004 s           0.000 s
  | Main matrix multiplication                  :        0.543 s           0.016 s
  | Analytic angular integration                :        0.004 s           0.000 s
  | Kernel construction                         :        0.003 s           0.001 s
  | Overall 2-center overlap time               :        0.577 s           0.022 s
  | 3-center preparation multiplications        :        0.080 s           0.037 s
  | 3-center preparation SBTs                   :        0.655 s           0.333 s
  | 3-center combinations                       :        0.701 s           0.088 s
  | Overal 3-center time                        :        1.437 s           0.460 s
  | LVL initialization                          :        0.171 s           0.171 s
  | Whole LVL-triples                           :        0.171 s           0.171 s

  Max. memory consumption per node for Hartree Fock matrix + Pulay mixing [GB]:      0.00
  Blocksize for Fock matrix computation:    20
  Initialize hartree_potential_storage
  Max. number of atoms included in rho_multipole:            2

  End scf initialization - timings             :  max(cpu_time)    wall_clock(cpu1)
  | Time for scf. initialization                :        3.019 s           3.036 s
  | Boundary condition initialization           :        0.000 s           0.000 s
  | Integration                                 :        0.019 s           0.019 s
  | Solution of K.-S. eqns.                     :        0.005 s           0.005 s
  | Grid partitioning                           :        0.022 s           0.022 s
  | Preloading free-atom quantities on grid     :        0.007 s           0.008 s
  | Free-atom superposition energy              :        0.003 s           0.002 s
  | Total energy evaluation                     :        0.000 s           0.000 s
  | Product basis setup: Total time             :        2.961 s           2.979 s

  Partial memory accounting:
  | Current value for overall tracked memory usage:
  |   Minimum:        0.717 MB (on task  0)
  |   Maximum:        2.816 MB (on task  5)
  |   Average:        1.848 MB
  | Peak value for overall tracked memory usage:
  |   Minimum:        1.189 MB (on task  1 after allocating d_aux_mat)
  |   Maximum:        2.816 MB (on task  5 after allocating max_norm_tmp_old)
  |   Average:        1.910 MB
  | Largest tracked array allocation so far:
  |   Minimum:        1.137 MB (aux_mat on task  0)
  |   Maximum:        2.756 MB (ovlp3fn for atom on task  5)
  |   Average:        1.854 MB
  Note:  These values currently only include a subset of arrays which are explicitly tracked.
  The "true" memory usage will be greater.
------------------------------------------------------------
  Evaluating new KS density.
  Integration grid: deviation in total charge (<rho> - N_e) =  -7.105427E-14

  Time for density update prior                :  max(cpu_time)    wall_clock(cpu1)
  | self-consistency iterative process          :        0.026 s           0.027 s

------------------------------------------------------------
          Begin self-consistency iteration #    1

  Date     :  20220515, Time     :  222858.286
------------------------------------------------------------
  Pulay mixing of updated and previous charge densities.
  Renormalizing the density to the exact electron count on the 3D integration grid.
  | Formal number of electrons (from input files) :      32.0000000000
  | Integrated number of electrons on 3D grid     :      32.0000000000
  | Charge integration error                      :       0.0000000000
  | Normalization factor for density and gradient :       1.0000000000

  Evaluating partitioned Hartree potential by multipole expansion.
  | Original multipole sum: apparent total charge =   0.491841E-13
  | Sum of charges compensated after spline to logarithmic grids =   0.597284E-07
  | Analytical far-field extrapolation by fixed multipoles:
  | Hartree multipole sum: apparent total charge =   0.491873E-13
  Summing up the Hartree potential.
  Time summed over all CPUs for potential: real work        0.050 s, elapsed        0.059 s
  | RMS charge density error from multipole expansion :   0.838603E-04

  Integrating Hamiltonian matrix: batch-based integration.
  Time summed over all CPUs for integration: real work        0.196 s, elapsed        0.205 s
  Max. memory consumption per node for dm_cols [GB]:      0.00
  Max. memory consumption per node for fock_matrix [GB]:      0.00
  Calculating non-local Hartree-Fock exchange by two-center RI (RI-LVL).
  screening_threshold (crit_val) =  0.000000100000
  Max. allocated memory per node for ovlp3fn_rcv [GB]:      0.01
  Max. allocated memory per node for fock_matrix_row [GB]:      0.00
  Max. memory consumption per node for m_ovlp_fact11 [GB]:      0.00
  Max. memory consumption per node for d_aux_mem [GB]:      0.00
  Max. memory consumption per node for dm_x_o3fn_aux [GB]:      0.00
  Max. allocated memory per node for tmp1/tmp2 [GB]:      0.02
   final impselect vector           4           3           6           1
   Time for autotuning:   6.214148178696632E-002
  Exact exchange progress report - outermost block loop i_block: 1 ..       4
  |        1         2         3         4  
   total ovlp3fn transfer [GB]  7.603891007602215E-002
  atomtime:          1        15       386      0.20
  atomtime:          2        24       386      0.25
  atomtime:          3        15       386      0.17
  atomtime:          4        24       386      0.19
  Full exact exchange energy:    1309.592296926316 eV.
  Detailed communication and barrier times:
  | Comm    0:        0.000       0.000       0.000       0.001       0.000       0.000       0.000       0.000       0.002       0.002
  | Comm    1:        0.000       0.000       0.000       0.001       0.000       0.000       0.000       0.000       0.002       0.002
  | Comm    2:        0.000       0.000       0.000       0.001       0.000       0.000       0.000       0.000       0.002       0.002
  | Comm    3:        0.000       0.000       0.000       0.002       0.000       0.000       0.000       0.000       0.003       0.003
  | Comm    4:        0.000       0.000       0.000       0.002       0.000       0.000       0.000       0.000       0.003       0.003
  | Comm    5:        0.000       0.000       0.000       0.002       0.000       0.000       0.000       0.000       0.003       0.003
  | Comm    6:        0.000       0.000       0.000       0.001       0.000       0.000       0.000       0.000       0.001       0.001
  | Comm    7:        0.000       0.000       0.000       0.001       0.000       0.000       0.000       0.000       0.001       0.001
  | Comm    8:        0.000       0.000       0.000       0.001       0.000       0.000       0.000       0.000       0.001       0.001
  | Comm    9:        0.000       0.000       0.000       0.001       0.000       0.000       0.000       0.000       0.001       0.001
  | Imbalance    0:        0.000       0.000       0.000       0.001       0.013       0.000       0.001       0.000       0.001       0.000
  | Imbalance    1:        0.000       0.000       0.000       0.000       0.012       0.000       0.001       0.000       0.000       0.000
  | Imbalance    2:        0.000       0.000       0.000       0.000       0.012       0.000       0.001       0.000       0.001       0.000
  | Imbalance    3:        0.000       0.000       0.000       0.001       0.005       0.000       0.001       0.000       0.002       0.000
  | Imbalance    4:        0.000       0.000       0.000       0.001       0.005       0.000       0.001       0.000       0.002       0.000
  | Imbalance    5:        0.000       0.000       0.000       0.000       0.003       0.000       0.000       0.000       0.000       0.000
  | Imbalance    6:        0.000       0.000       0.000       0.000       0.006       0.000       0.001       0.000       0.001       0.000
  | Imbalance    7:        0.000       0.000       0.000       0.000       0.006       0.000       0.001       0.000       0.000       0.000
  | Imbalance    8:        0.000       0.000       0.000       0.000       0.000       0.000       0.000       0.000       0.001       0.000
  | Imbalance    9:        0.000       0.000       0.000       0.000       0.000       0.000       0.000       0.000       0.000       0.000
  Times            DM_x_o3fn   CM_prod_1   CM_prod_2   tmp2_prod        Sync   Imbalance       Other  Total calc
  | Times    0:        0.001       0.013       0.005       0.001       0.006       0.015       0.149       0.189
  | Times    1:        0.001       0.013       0.004       0.001       0.006       0.015       0.150       0.189
  | Times    2:        0.001       0.013       0.004       0.002       0.006       0.014       0.150       0.189
  | Times    3:        0.001       0.013       0.006       0.002       0.009       0.009       0.150       0.189
  | Times    4:        0.002       0.013       0.005       0.002       0.009       0.008       0.150       0.189
  | Times    5:        0.002       0.014       0.006       0.004       0.009       0.004       0.151       0.189
  | Times    6:        0.002       0.019       0.006       0.002       0.003       0.008       0.150       0.189
  | Times    7:        0.002       0.019       0.007       0.002       0.003       0.007       0.150       0.189
  | Times    8:        0.002       0.019       0.008       0.004       0.004       0.001       0.151       0.189
  | Times    9:        0.002       0.020       0.008       0.004       0.004       0.001       0.151       0.189
  | Times  sum:        0.017       0.155       0.058       0.024       0.058       0.081       1.501       1.894

  Decomposition of Other based on code block (only on MPI task 0):
  Times             Block #1    Block #2    Block #3    Block #4    Block #5    Block #6    Block #7    Block #8
  | Times    0:        0.001       0.000       0.000       0.000       0.000       0.000       0.000       0.000

  Times             Block #9   Block #10   Block #11   Block #12   Block #13   Block #14   Block #15   Block #16
  | Times    0:        0.000       0.000       0.000       0.145       0.002       0.000       0.000       0.000

  Times            Block Sum    Expected
  | Times    0:        0.149       0.149
 Time for Fock matrix mixing  2.218782901763916E-004

  Updating Kohn-Sham eigenvalues and eigenvectors using ELSI and the ELPA eigensolver.
  Starting ELPA eigensolver
  Finished transformation to standard eigenproblem
  | Time :     0.000 s
  Finished solving standard eigenproblem
  | Time :     0.001 s
  Finished back-transformation of eigenvectors
  | Time :     0.000 s

  Obtaining occupation numbers and chemical potential using ELSI.
  | Chemical potential (Fermi level):    -5.83704227 eV
  Writing Kohn-Sham eigenvalues.

  State    Occupation    Eigenvalue [Ha]    Eigenvalue [eV]
      1       2.00000         -89.666465        -2439.94865
      2       2.00000         -89.666464        -2439.94863
      3       2.00000          -8.109368         -220.66714
      4       2.00000          -8.109173         -220.66181
      5       2.00000          -5.994417         -163.11638
      6       2.00000          -5.993617         -163.09461
      7       2.00000          -5.992283         -163.05832
      8       2.00000          -5.992283         -163.05832
[...]
  | Total energy evaluation                     :        0.000 s           0.000 s

  Partial memory accounting:
  | Current value for overall tracked memory usage:
  |   Minimum:        0.718 MB (on task  0)
  |   Maximum:        2.816 MB (on task  5)
  |   Average:        1.849 MB
  | Peak value for overall tracked memory usage:
  |   Minimum:        1.634 MB (on task  0 after allocating tmp2_aux)
  |   Maximum:        4.276 MB (on task  5 after allocating tmp2_aux)
  |   Average:        3.037 MB
  | Largest tracked array allocation so far:
  |   Minimum:        1.137 MB (ovlp3fn for atom on task  0)
  |   Maximum:        2.756 MB (ovlp3fn for atom on task  5)
  |   Average:        1.882 MB
  Note:  These values currently only include a subset of arrays which are explicitly tracked.
  The "true" memory usage will be greater.
------------------------------------------------------------

------------------------------------------------------------
          Begin self-consistency iteration #   14

  Date     :  20220515, Time     :  222901.427
------------------------------------------------------------
  Pulay mixing of updated and previous charge densities.
  Renormalizing the density to the exact electron count on the 3D integration grid.
  | Formal number of electrons (from input files) :      32.0000000000
  | Integrated number of electrons on 3D grid     :      32.0000000000
  | Charge integration error                      :       0.0000000000
  | Normalization factor for density and gradient :       1.0000000000

  Evaluating partitioned Hartree potential by multipole expansion.
  | Original multipole sum: apparent total charge =   0.578806E-13
  | Sum of charges compensated after spline to logarithmic grids =   0.168618E-06
  | Analytical far-field extrapolation by fixed multipoles:
  | Hartree multipole sum: apparent total charge =   0.578686E-13
  Summing up the Hartree potential.
  Time summed over all CPUs for potential: real work        0.043 s, elapsed        0.048 s
  | RMS charge density error from multipole expansion :   0.176404E-02

  Integrating Hamiltonian matrix: batch-based integration.
  Time summed over all CPUs for integration: real work        0.203 s, elapsed        0.217 s
  Calculating non-local Hartree-Fock exchange by two-center RI (RI-LVL).
  screening_threshold (crit_val) =  0.000000100000
  Exact exchange progress report - outermost block loop i_block: 1 ..       4
  |        1         2         3         4  
   total ovlp3fn transfer [GB]  3.755007870495319E-002
  atomtime:          1        15       386      0.11
  atomtime:          2        24       386      0.13
  atomtime:          3        15       386      0.09
  atomtime:          4        24       386      0.10
  Full exact exchange energy:    1308.733021519261 eV.
  Times            DM_x_o3fn   CM_prod_1   CM_prod_2   tmp2_prod        Sync   Imbalance       Other  Total calc
  | Times    0:        0.001       0.013       0.005       0.001       0.007       0.026       0.131       0.184
  | Times    1:        0.001       0.019       0.006       0.002       0.007       0.017       0.132       0.184
  | Times    2:        0.002       0.017       0.005       0.002       0.007       0.018       0.133       0.184
  | Times    3:        0.002       0.019       0.007       0.002       0.011       0.011       0.132       0.184
  | Times    4:        0.002       0.019       0.007       0.002       0.011       0.009       0.133       0.184
  | Times    5:        0.003       0.020       0.007       0.004       0.011       0.004       0.135       0.184
  | Times    6:        0.002       0.027       0.008       0.002       0.004       0.008       0.133       0.184
  | Times    7:        0.002       0.026       0.009       0.002       0.004       0.008       0.133       0.184
  | Times    8:        0.003       0.027       0.010       0.004       0.004       0.001       0.135       0.184
  | Times    9:        0.003       0.027       0.010       0.004       0.004       0.001       0.135       0.184
  | Times  sum:        0.021       0.216       0.073       0.026       0.069       0.104       1.333       1.842

  Decomposition of Other based on code block (only on MPI task 0):
  Times             Block #1    Block #2    Block #3    Block #4    Block #5    Block #6    Block #7    Block #8
  | Times    0:        0.000       0.000       0.000       0.000       0.000       0.000       0.001       0.000

  Times             Block #9   Block #10   Block #11   Block #12   Block #13   Block #14   Block #15   Block #16
  | Times    0:        0.000       0.000       0.000       0.127       0.002       0.000       0.000       0.000

  Times            Block Sum    Expected
  | Times    0:        0.130       0.131
 Time for Fock matrix mixing  1.855026930570602E-004

  Updating Kohn-Sham eigenvalues and eigenvectors using ELSI and the ELPA eigensolver.
  Starting ELPA eigensolver
  Finished transformation to standard eigenproblem
  | Time :     0.000 s
  Finished solving standard eigenproblem
  | Time :     0.001 s
  Finished back-transformation of eigenvectors
  | Time :     0.000 s

  Obtaining occupation numbers and chemical potential using ELSI.
  | Chemical potential (Fermi level):    -5.48847052 eV
  Highest occupied state (VBM) at     -5.48847052 eV
  | Occupation number:      1.00000000

  Lowest unoccupied state (CBM) at    -5.48847052 eV
  | Occupation number:      1.00000000

  Overall HOMO-LUMO gap:      0.00000000 eV.
  This system has fractional occupation numbers. Thus, it is a degenerate system
  within the approximate finite broadening function (occupation_type)
  applied to determine the occupation numbers.
  This may not be harmful. However, for some systems (free atoms), a different, non-degenerate
  ground state might exist by using a smaller broadening (see keyword occupation_type).

  Total energy components:
  | Sum of eigenvalues            :        -468.17829645 Ha      -12739.77963921 eV
  | XC energy correction          :         -27.20012443 Ha        -740.15304420 eV
  | XC potential correction       :          50.49056404 Ha        1373.91815183 eV
  | Free-atom electrostatic energy:        -354.04896254 Ha       -9634.16245153 eV
  | Hartree energy correction     :          -0.64559874 Ha         -17.56763560 eV
  | Entropy correction            :          -0.00207336 Ha          -0.05641896 eV
  | ---------------------------
  | Total energy                  :        -799.58241811 Ha      -21757.74461871 eV
  | Total energy, T -> 0          :        -799.58449147 Ha      -21757.80103767 eV  <-- do not rely on this value for anything but (periodic) metals
  | Electronic free energy        :        -799.58656483 Ha      -21757.85745662 eV

  Derived energy quantities:
  | Kinetic energy                :         802.69662040 Ha       21842.48637466 eV
  | Electrostatic energy          :       -1551.03138685 Ha      -42205.71143904 eV
  | Energy correction for multipole
  | error in Hartree potential    :          -0.00102641 Ha          -0.02792999 eV
  | Sum of eigenvalues per atom                           :       -6369.88981960 eV
  | Total energy (T->0) per atom                          :      -10878.90051883 eV  <-- do not rely on this value for anything but (periodic) metals
  | Electronic free energy per atom                       :      -10878.92872831 eV

  Self-consistency convergence accuracy:
  | Change of charge density      :  0.4884E-07
  | Change of sum of eigenvalues  : -0.5247E-06 eV
  | Change of total energy        :  0.3050E-07 eV

  Writing Kohn-Sham eigenvalues.

  State    Occupation    Eigenvalue [Ha]    Eigenvalue [eV]
      1       2.00000         -89.645213        -2439.37037
      2       2.00000         -89.645213        -2439.37035
      3       2.00000          -8.092476         -220.20747
      4       2.00000          -8.092280         -220.20214
      5       2.00000          -5.977708         -162.66172
      6       2.00000          -5.976925         -162.64041
      7       2.00000          -5.974422         -162.57229
      8       2.00000          -5.974422         -162.57229
      9       2.00000          -5.974361         -162.57065
     10       2.00000          -5.974361         -162.57065
     11       2.00000          -0.837900          -22.80042
     12       2.00000          -0.618144          -16.82057
     13       2.00000          -0.392207          -10.67250
     14       2.00000          -0.355908           -9.68476
     15       2.00000          -0.355908           -9.68476
     16       1.00000          -0.201698           -5.48847
     17       1.00000          -0.201698           -5.48847
     18       0.00000          -0.017220           -0.46858
     19       0.00000           0.106527            2.89874
     20       0.00000           0.137492            3.74133
     21       0.00000           0.137492            3.74134
     22       0.00000           0.148102            4.03007

  Highest occupied state (VBM) at     -5.48847052 eV
  | Occupation number:      1.00000000

  Lowest unoccupied state (CBM) at    -5.48847052 eV
  | Occupation number:      1.00000000

  Overall HOMO-LUMO gap:      0.00000000 eV.
  This system has fractional occupation numbers. Thus, it is a degenerate system
  within the approximate finite broadening function (occupation_type)
  applied to determine the occupation numbers.
  This may not be harmful. However, for some systems (free atoms), a different, non-degenerate
  ground state might exist by using a smaller broadening (see keyword occupation_type).
  | Chemical Potential                          :    -5.48847052 eV

  Self-consistency cycle converged.


------------------------------------------------------------
  End self-consistency iteration #    14       :  max(cpu_time)    wall_clock(cpu1)
  | Time for this iteration                     :        0.209 s           0.216 s
  | Charge density update                       :        0.000 s           0.000 s
  | Density mixing                              :        0.001 s           0.002 s
  | Hartree multipole update                    :        0.002 s           0.001 s
  | Hartree multipole summation                 :        0.005 s           0.005 s
  | Integration                                 :        0.022 s           0.022 s
  | Fock matrix evaluation                      :        0.177 s           0.185 s
  | Solution of K.-S. eqns.                     :        0.001 s           0.001 s
  | Total energy evaluation                     :        0.000 s           0.000 s

  Partial memory accounting:
  | Current value for overall tracked memory usage:
  |   Minimum:        0.718 MB (on task  0)
  |   Maximum:        2.816 MB (on task  5)
  |   Average:        1.849 MB
  | Peak value for overall tracked memory usage:
  |   Minimum:        1.634 MB (on task  0 after allocating tmp2_aux)
  |   Maximum:        4.276 MB (on task  5 after allocating tmp2_aux)
  |   Average:        3.037 MB
  | Largest tracked array allocation so far:
  |   Minimum:        1.137 MB (ovlp3fn for atom on task  0)
  |   Maximum:        2.756 MB (ovlp3fn for atom on task  5)
  |   Average:        1.882 MB
  Note:  These values currently only include a subset of arrays which are explicitly tracked.
  The "true" memory usage will be greater.
------------------------------------------------------------

  Energy and forces in a compact form:
  | Total energy uncorrected      :         -0.217577446187071E+05 eV
  | Total energy corrected        :         -0.217578010376654E+05 eV  <-- do not rely on this value for anything but (periodic) metals
  | Electronic free energy        :         -0.217578574566238E+05 eV

  ------------------------------------ 
  Start decomposition of the XC Energy 
  ------------------------------------ 
  X and C from original XC functional choice 
  Hartree-Fock Energy :        -12.023763634 Ha           -327.183255380 eV
  X Energy            :        -50.021853300 Ha          -1361.163883555 eV
  C Energy            :         -1.225798382 Ha            -33.355671089 eV
  Total XC Energy     :        -51.247651682 Ha          -1394.519554644 eV
  ------------------------------------ 
  LDA X and C from self-consistent density 
  X Energy LDA        :        -46.282272704 Ha          -1259.404718072 eV
  C Energy LDA        :         -2.479574598 Ha            -67.472657773 eV
  ------------------------------------ 
  End decomposition of the XC Energy 
  ------------------------------------ 

------------------------------------------------------------

------------------------------------------------------------------------------
  Final output of selected total energy values:

  The following output summarizes some interesting total energy values
  at the end of a run (AFTER all relaxation, molecular dynamics, etc.).

  | Total energy of the DFT / Hartree-Fock s.c.f. calculation      :         -21757.744618707 eV
  | Final zero-broadening corrected energy (caution - metals only) :         -21757.801037665 eV
  | For reference only, the value of 1 Hartree used in FHI-aims is :             27.211384500 eV

  Before relying on these values, please be sure to understand exactly which
  total energy value is referred to by a given number. Different objects may
  all carry the same name 'total energy'. Definitions:

  Total energy of the DFT / Hartree-Fock s.c.f. calculation:
  | Note that this energy does not include ANY quantities calculated after the
  | s.c.f. cycle, in particular not ANY RPA, MP2, etc. many-body perturbation terms.

  Final zero-broadening corrected energy:
  | For metallic systems only, a broadening of the occupation numbers at the Fermi
  | level can be extrapolated back to zero broadening by an electron-gas inspired
  | formula. For all systems that are not real metals, this value can be
  | meaningless and should be avoided.

------------------------------------------------------------------------------
  Methods described in the following list of references were used in this FHI-aims run.
  If you publish the results, please make sure to cite these reference if they apply.
  FHI-aims is an academic code, and for our developers (often, Ph.D. students
  and postdocs), scientific credit in the community is essential.
  Thank you for helping us!

  For any use of FHI-aims, please cite:

    Volker Blum, Ralf Gehrke, Felix Hanke, Paula Havu, Ville Havu,
    Xinguo Ren, Karsten Reuter, and Matthias Scheffler
    'Ab initio molecular simulations with numeric atom-centered orbitals'
    Computer Physics Communications 180, 2175-2196 (2009)
    http://dx.doi.org/10.1016/j.cpc.2009.06.022


  For Hartree-Fock, hybrid functionals, or many-body perturbation theory used in your run, please cite:

    Xinguo Ren, Patrick Rinke, Volker Blum, Juergen Wieferink, Alex Tkatchenko,
    Andrea Sanfilippo, Karsten Reuter, and Matthias Scheffler,
    'Resolution-of-identity approach to Hartree-Fock, hybrid density functionals,
    RPA, MP2, and GW with numeric atom-centered orbital basis functions'
    New Journal of Physics 14, 053020 (2012).
    http://dx.doi.org/10.1088/1367-2630/14/5/053020


  The ELSI infrastructure was used in your run to solve the Kohn-Sham electronic structure.
  Please check out http://elsi-interchange.org to learn more.
  If scalability is important for your project, please acknowledge ELSI by citing:

    V. W-z. Yu, F. Corsetti, A. Garcia, W. P. Huhn, M. Jacquelin, W. Jia,
    B. Lange, L. Lin, J. Lu, W. Mi, A. Seifitokaldani, A. Vazquez-Mayagoitia,
    C. Yang, H. Yang, and V. Blum
    'ELSI: A unified software interface for Kohn-Sham electronic structure solvers'
    Computer Physics Communications 222, 267-285 (2018).
    http://dx.doi.org/10.1016/j.cpc.2017.09.007


  For the real-space grid partitioning and parallelization used in this calculation, please cite:

    Ville Havu, Volker Blum, Paula Havu, and Matthias Scheffler,
    'Efficient O(N) integration for all-electron electronic structure calculation'
    'using numerically tabulated basis functions'
    Journal of Computational Physics 228, 8367-8379 (2009).
    http://dx.doi.org/10.1016/j.jcp.2009.08.008


  The high-level electronic structure method used in your calculation
  employed our efficient localized resolution of identity for the Coulomb operator.
  Some calculations, especially large-scale hybrid density functional theory,
  are only possible thanks to this development. For this feature, please cite:

    Arvid Ihrig, Juergen Wieferink, Igor Ying Zhang, Matti Ropo, Xinguo Ren,
    Patrick Rinke, Matthias Scheffler, and Volker Blum,
    'Accurate localized resolution of identity approach for linear-scaling
    hybrid density functionals and for many-body perturbation theory'
    New Journal of Physics 117, 093020 (2015).
    http://dx.doi.org/10.1088/1367-2630/17/9/093020

  Of course, there are many other important community references, e.g., those cited in the
  above references. Our list is limited to references that describe implementations in the
  FHI-aims code. The reason is purely practical (length of this list) - please credit others as well.

------------------------------------------------------------
          Leaving FHI-aims.
          Date     :  20220515, Time     :  222901.656

          Computational steps:
          | Number of self-consistency cycles          :           14
          | Number of SCF (re)initializations          :            1

          Detailed time accounting                     :  max(cpu_time)    wall_clock(cpu1)
          | Total time                                  :        6.821 s           6.956 s
          | Preparation time                            :        0.474 s           0.474 s
          | Boundary condition initalization            :        0.000 s           0.000 s
          | Grid partitioning                           :        0.022 s           0.022 s
          | Preloading free-atom quantities on grid     :        0.007 s           0.008 s
          | Free-atom superposition energy              :        0.003 s           0.002 s
          | Total time for integrations                 :        0.324 s           0.324 s
          | Product basis setup: Total time             :        2.961 s           2.979 s
          | Total time evaluating exchange matrix       :        2.582 s           2.698 s
          | Total time for solution of K.-S. equations  :        0.028 s           0.029 s
          | Total time for density update               :        0.222 s           0.224 s
          | Total time for mixing                       :        0.018 s           0.019 s
          | Total time for Hartree multipole update     :        0.023 s           0.022 s
          | Total time for Hartree multipole sum        :        0.088 s           0.089 s
          | Total time for total energy evaluation      :        0.002 s           0.000 s
          | Total time for scaled ZORA corrections      :        0.000 s           0.000 s

          Partial memory accounting:
          | Residual value for overall tracked memory usage across tasks:     0.000000 MB (should be 0.000000 MB)
          | Peak values for overall tracked memory usage:
          |   Minimum:        1.634 MB (on task  0 after allocating tmp2_aux)
          |   Maximum:        4.276 MB (on task  5 after allocating tmp2_aux)
          |   Average:        3.037 MB
          | Largest tracked array allocation:
          |   Minimum:        1.137 MB (ovlp3fn for atom on task  0)
          |   Maximum:        2.756 MB (ovlp3fn for atom on task  5)
          |   Average:        1.882 MB
          Note:  These values currently only include a subset of arrays which are explicitly tracked.
          The "true" memory usage will be greater.

          Have a nice day.
------------------------------------------------------------
