------------------------------------------------------------
          Invoking FHI-aims ...

          When using FHI-aims, please cite the following reference:

            Volker Blum, Ralf Gehrke, Felix Hanke, Paula Havu,
            Ville Havu, Xinguo Ren, Karsten Reuter, and Matthias Scheffler,
            'Ab Initio Molecular Simulations with Numeric Atom-Centered Orbitals',
            Computer Physics Communications 180, 2175-2196 (2009)

          In addition, many other developments in FHI-aims are likely important for
          your particular application. A partial list of references is given at the end of
          this file. Thank you for giving credit to the authors of these developments.

          For any questions about FHI-aims, please visit our slack channel at

            https://fhi-aims.slack.com

          and our main development and support site at

            https://aims-git.rz-berlin.mpg.de .

          The latter site, in particular, has a wiki to collect information, as well
          as an issue tracker to log discussions, suggest improvements, and report issues
          or bugs. https://aims-git.rz-berlin.mpg.de is also the main development site
          of the project and all new and updated code versions can be obtained there.
          Please send an email to aims-coordinators@fhi-berlin.mpg.de and we will add
          you to these sites. They are for you and everyone is welcome there.

------------------------------------------------------------



  Date     :  20220914, Time     :  153733.416
  Time zero on CPU 1             :   0.182182700000000E+01  s.
  Internal wall clock time zero  :           432401853.416  s.

  FHI-aims created a unique identifier for this run for later identification
  aims_uuid : CA84248F-C7BE-4C74-A864-C68E15BAC300

  Build configuration of the current instance of FHI-aims
  -------------------------------------------------------
  FHI-aims version      : 220609
  Commit number         : 932a0c519
  CMake host system     : Linux-4.12.14-197.78_9.1.64-cray_shasta_c
  CMake version         : 3.10.2
  Fortran compiler      : /opt/cray/pe/craype/2.7.6/bin/ftn (GNU) version 10.2.0
  Fortran compiler flags: -O2 -fallow-argument-mismatch -ffree-line-length-none
  C compiler            : /opt/cray/pe/craype/2.7.6/bin/cc (GNU) version 10.2.0
  C compiler flags      : -O2
  Using MPI
  Using ScaLAPACK
  Using LibXC
  Using i-PI
  Using RLSY
  Linking against:

  Using      512 parallel tasks.
  Task        0 on host nid003124 reporting.
  Task        1 on host nid003124 reporting.
  Task        2 on host nid003124 reporting.
  Task        3 on host nid003124 reporting.
  Task        4 on host nid003124 reporting.
  Task        5 on host nid003124 reporting.
  Task        6 on host nid003124 reporting.
  Task        7 on host nid003124 reporting.
  Task        8 on host nid003124 reporting.
  Task        9 on host nid003124 reporting.
  Task       10 on host nid003124 reporting.
  Task       11 on host nid003124 reporting.
  Task       12 on host nid003124 reporting.
  Task       13 on host nid003124 reporting.
  Task       14 on host nid003124 reporting.
  Task       15 on host nid003124 reporting.
  Task       16 on host nid003124 reporting.
  Task       17 on host nid003124 reporting.
  Task       18 on host nid003124 reporting.
  Task       19 on host nid003124 reporting.
  Task       20 on host nid003124 reporting.
  Task       21 on host nid003124 reporting.
  Task       22 on host nid003124 reporting.
  Task       23 on host nid003124 reporting.
  Task       24 on host nid003124 reporting.
  Task       25 on host nid003124 reporting.
  Task       26 on host nid003124 reporting.
  Task       27 on host nid003124 reporting.
  Task       28 on host nid003124 reporting.
  Task       29 on host nid003124 reporting.
  Task       30 on host nid003124 reporting.
  Task       31 on host nid003124 reporting.
  Task       32 on host nid003124 reporting.
  Task       33 on host nid003124 reporting.
  Task       34 on host nid003124 reporting.
  Task       35 on host nid003124 reporting.
  Task       36 on host nid003124 reporting.
  Task       37 on host nid003124 reporting.
  Task       38 on host nid003124 reporting.
  Task       39 on host nid003124 reporting.
  Task       40 on host nid003124 reporting.
  Task       41 on host nid003124 reporting.
  Task       42 on host nid003124 reporting.
  Task       43 on host nid003124 reporting.
  Task       44 on host nid003124 reporting.
  Task       45 on host nid003124 reporting.
  Task       46 on host nid003124 reporting.
  Task       47 on host nid003124 reporting.
  Task       48 on host nid003124 reporting.
  Task       49 on host nid003124 reporting.
  Task       50 on host nid003124 reporting.
  Task       51 on host nid003124 reporting.
  Task       52 on host nid003124 reporting.
  Task       53 on host nid003124 reporting.
  Task       54 on host nid003124 reporting.
  Task       55 on host nid003124 reporting.
  Task       56 on host nid003124 reporting.
  Task       57 on host nid003124 reporting.
  Task       58 on host nid003124 reporting.
  Task       59 on host nid003124 reporting.
  Task       60 on host nid003124 reporting.
  Task       61 on host nid003124 reporting.
  Task       62 on host nid003124 reporting.
  Task       63 on host nid003124 reporting.
  Task       64 on host nid003124 reporting.
  Task       65 on host nid003124 reporting.
  Task       66 on host nid003124 reporting.
  Task       67 on host nid003124 reporting.
  Task       68 on host nid003124 reporting.
  Task       69 on host nid003124 reporting.
  Task       70 on host nid003124 reporting.
  Task       71 on host nid003124 reporting.
  Task       72 on host nid003124 reporting.
  Task       73 on host nid003124 reporting.
  Task       74 on host nid003124 reporting.
  Task       75 on host nid003124 reporting.
  Task       76 on host nid003124 reporting.
  Task       77 on host nid003124 reporting.
  Task       78 on host nid003124 reporting.
  Task       79 on host nid003124 reporting.
  Task       80 on host nid003124 reporting.
  Task       81 on host nid003124 reporting.
  Task       82 on host nid003124 reporting.
  Task       83 on host nid003124 reporting.
  Task       84 on host nid003124 reporting.
  Task       85 on host nid003124 reporting.
  Task       86 on host nid003124 reporting.
  Task       87 on host nid003124 reporting.
  Task       88 on host nid003124 reporting.
  Task       89 on host nid003124 reporting.
  Task       90 on host nid003124 reporting.
  Task       91 on host nid003124 reporting.
  Task       92 on host nid003124 reporting.
  Task       93 on host nid003124 reporting.
  Task       94 on host nid003124 reporting.
  Task       95 on host nid003124 reporting.
  Task       96 on host nid003124 reporting.
  Task       97 on host nid003124 reporting.
  Task       98 on host nid003124 reporting.
  Task       99 on host nid003124 reporting.
  Task      100 on host nid003124 reporting.
  Task      101 on host nid003124 reporting.
  Task      102 on host nid003124 reporting.
  Task      103 on host nid003124 reporting.
  Task      104 on host nid003124 reporting.
  Task      105 on host nid003124 reporting.
  Task      106 on host nid003124 reporting.
  Task      107 on host nid003124 reporting.
  Task      108 on host nid003124 reporting.
  Task      109 on host nid003124 reporting.
  Task      110 on host nid003124 reporting.
  Task      111 on host nid003124 reporting.
  Task      112 on host nid003124 reporting.
  Task      113 on host nid003124 reporting.
  Task      114 on host nid003124 reporting.
  Task      115 on host nid003124 reporting.
  Task      116 on host nid003124 reporting.
  Task      117 on host nid003124 reporting.
  Task      118 on host nid003124 reporting.
  Task      119 on host nid003124 reporting.
  Task      120 on host nid003124 reporting.
  Task      121 on host nid003124 reporting.
  Task      122 on host nid003124 reporting.
  Task      123 on host nid003124 reporting.
  Task      124 on host nid003124 reporting.
  Task      125 on host nid003124 reporting.
  Task      126 on host nid003124 reporting.
  Task      127 on host nid003124 reporting.
  Task      128 on host nid003125 reporting.
  Task      129 on host nid003125 reporting.
  Task      130 on host nid003125 reporting.
  Task      131 on host nid003125 reporting.
  Task      132 on host nid003125 reporting.
  Task      133 on host nid003125 reporting.
  Task      134 on host nid003125 reporting.
  Task      135 on host nid003125 reporting.
  Task      136 on host nid003125 reporting.
  Task      137 on host nid003125 reporting.
  Task      138 on host nid003125 reporting.
  Task      139 on host nid003125 reporting.
  Task      140 on host nid003125 reporting.
  Task      141 on host nid003125 reporting.
  Task      142 on host nid003125 reporting.
  Task      143 on host nid003125 reporting.
  Task      144 on host nid003125 reporting.
  Task      145 on host nid003125 reporting.
  Task      146 on host nid003125 reporting.
  Task      147 on host nid003125 reporting.
  Task      148 on host nid003125 reporting.
  Task      149 on host nid003125 reporting.
  Task      150 on host nid003125 reporting.
  Task      151 on host nid003125 reporting.
  Task      152 on host nid003125 reporting.
  Task      153 on host nid003125 reporting.
  Task      154 on host nid003125 reporting.
  Task      155 on host nid003125 reporting.
  Task      156 on host nid003125 reporting.
  Task      157 on host nid003125 reporting.
  Task      158 on host nid003125 reporting.
  Task      159 on host nid003125 reporting.
  Task      160 on host nid003125 reporting.
  Task      161 on host nid003125 reporting.
  Task      162 on host nid003125 reporting.
  Task      163 on host nid003125 reporting.
  Task      164 on host nid003125 reporting.
  Task      165 on host nid003125 reporting.
  Task      166 on host nid003125 reporting.
  Task      167 on host nid003125 reporting.
  Task      168 on host nid003125 reporting.
  Task      169 on host nid003125 reporting.
  Task      170 on host nid003125 reporting.
  Task      171 on host nid003125 reporting.
  Task      172 on host nid003125 reporting.
  Task      173 on host nid003125 reporting.
  Task      174 on host nid003125 reporting.
  Task      175 on host nid003125 reporting.
  Task      176 on host nid003125 reporting.
  Task      177 on host nid003125 reporting.
  Task      178 on host nid003125 reporting.
  Task      179 on host nid003125 reporting.
  Task      180 on host nid003125 reporting.
  Task      181 on host nid003125 reporting.
  Task      182 on host nid003125 reporting.
  Task      183 on host nid003125 reporting.
  Task      184 on host nid003125 reporting.
  Task      185 on host nid003125 reporting.
  Task      186 on host nid003125 reporting.
  Task      187 on host nid003125 reporting.
  Task      188 on host nid003125 reporting.
  Task      189 on host nid003125 reporting.
  Task      190 on host nid003125 reporting.
  Task      191 on host nid003125 reporting.
  Task      192 on host nid003125 reporting.
  Task      193 on host nid003125 reporting.
  Task      194 on host nid003125 reporting.
  Task      195 on host nid003125 reporting.
  Task      196 on host nid003125 reporting.
  Task      197 on host nid003125 reporting.
  Task      198 on host nid003125 reporting.
  Task      199 on host nid003125 reporting.
  Task      200 on host nid003125 reporting.
  Task      201 on host nid003125 reporting.
  Task      202 on host nid003125 reporting.
  Task      203 on host nid003125 reporting.
  Task      204 on host nid003125 reporting.
  Task      205 on host nid003125 reporting.
  Task      206 on host nid003125 reporting.
  Task      207 on host nid003125 reporting.
  Task      208 on host nid003125 reporting.
  Task      209 on host nid003125 reporting.
  Task      210 on host nid003125 reporting.
  Task      211 on host nid003125 reporting.
  Task      212 on host nid003125 reporting.
  Task      213 on host nid003125 reporting.
  Task      214 on host nid003125 reporting.
  Task      215 on host nid003125 reporting.
  Task      216 on host nid003125 reporting.
  Task      217 on host nid003125 reporting.
  Task      218 on host nid003125 reporting.
  Task      219 on host nid003125 reporting.
  Task      220 on host nid003125 reporting.
  Task      221 on host nid003125 reporting.
  Task      222 on host nid003125 reporting.
  Task      223 on host nid003125 reporting.
  Task      224 on host nid003125 reporting.
  Task      225 on host nid003125 reporting.
  Task      226 on host nid003125 reporting.
  Task      227 on host nid003125 reporting.
  Task      228 on host nid003125 reporting.
  Task      229 on host nid003125 reporting.
  Task      230 on host nid003125 reporting.
  Task      231 on host nid003125 reporting.
  Task      232 on host nid003125 reporting.
  Task      233 on host nid003125 reporting.
  Task      234 on host nid003125 reporting.
  Task      235 on host nid003125 reporting.
  Task      236 on host nid003125 reporting.
  Task      237 on host nid003125 reporting.
  Task      238 on host nid003125 reporting.
  Task      239 on host nid003125 reporting.
  Task      240 on host nid003125 reporting.
  Task      241 on host nid003125 reporting.
  Task      242 on host nid003125 reporting.
  Task      243 on host nid003125 reporting.
  Task      244 on host nid003125 reporting.
  Task      245 on host nid003125 reporting.
  Task      246 on host nid003125 reporting.
  Task      247 on host nid003125 reporting.
  Task      248 on host nid003125 reporting.
  Task      249 on host nid003125 reporting.
  Task      250 on host nid003125 reporting.
  Task      251 on host nid003125 reporting.
  Task      252 on host nid003125 reporting.
  Task      253 on host nid003125 reporting.
  Task      254 on host nid003125 reporting.
  Task      255 on host nid003125 reporting.
  Task      256 on host nid003126 reporting.
  Task      257 on host nid003126 reporting.
  Task      258 on host nid003126 reporting.
  Task      259 on host nid003126 reporting.
  Task      260 on host nid003126 reporting.
  Task      261 on host nid003126 reporting.
  Task      262 on host nid003126 reporting.
  Task      263 on host nid003126 reporting.
  Task      264 on host nid003126 reporting.
  Task      265 on host nid003126 reporting.
  Task      266 on host nid003126 reporting.
  Task      267 on host nid003126 reporting.
  Task      268 on host nid003126 reporting.
  Task      269 on host nid003126 reporting.
  Task      270 on host nid003126 reporting.
  Task      271 on host nid003126 reporting.
  Task      272 on host nid003126 reporting.
  Task      273 on host nid003126 reporting.
  Task      274 on host nid003126 reporting.
  Task      275 on host nid003126 reporting.
  Task      276 on host nid003126 reporting.
  Task      277 on host nid003126 reporting.
  Task      278 on host nid003126 reporting.
  Task      279 on host nid003126 reporting.
  Task      280 on host nid003126 reporting.
  Task      281 on host nid003126 reporting.
  Task      282 on host nid003126 reporting.
  Task      283 on host nid003126 reporting.
  Task      284 on host nid003126 reporting.
  Task      285 on host nid003126 reporting.
  Task      286 on host nid003126 reporting.
  Task      287 on host nid003126 reporting.
  Task      288 on host nid003126 reporting.
  Task      289 on host nid003126 reporting.
  Task      290 on host nid003126 reporting.
  Task      291 on host nid003126 reporting.
  Task      292 on host nid003126 reporting.
  Task      293 on host nid003126 reporting.
  Task      294 on host nid003126 reporting.
  Task      295 on host nid003126 reporting.
  Task      296 on host nid003126 reporting.
  Task      297 on host nid003126 reporting.
  Task      298 on host nid003126 reporting.
  Task      299 on host nid003126 reporting.
  Task      300 on host nid003126 reporting.
  Task      301 on host nid003126 reporting.
  Task      302 on host nid003126 reporting.
  Task      303 on host nid003126 reporting.
  Task      304 on host nid003126 reporting.
  Task      305 on host nid003126 reporting.
  Task      306 on host nid003126 reporting.
  Task      307 on host nid003126 reporting.
  Task      308 on host nid003126 reporting.
  Task      309 on host nid003126 reporting.
  Task      310 on host nid003126 reporting.
  Task      311 on host nid003126 reporting.
  Task      312 on host nid003126 reporting.
  Task      313 on host nid003126 reporting.
  Task      314 on host nid003126 reporting.
  Task      315 on host nid003126 reporting.
  Task      316 on host nid003126 reporting.
  Task      317 on host nid003126 reporting.
  Task      318 on host nid003126 reporting.
  Task      319 on host nid003126 reporting.
  Task      320 on host nid003126 reporting.
  Task      321 on host nid003126 reporting.
  Task      322 on host nid003126 reporting.
  Task      323 on host nid003126 reporting.
  Task      324 on host nid003126 reporting.
  Task      325 on host nid003126 reporting.
  Task      326 on host nid003126 reporting.
  Task      327 on host nid003126 reporting.
  Task      328 on host nid003126 reporting.
  Task      329 on host nid003126 reporting.
  Task      330 on host nid003126 reporting.
  Task      331 on host nid003126 reporting.
  Task      332 on host nid003126 reporting.
  Task      333 on host nid003126 reporting.
  Task      334 on host nid003126 reporting.
  Task      335 on host nid003126 reporting.
  Task      336 on host nid003126 reporting.
  Task      337 on host nid003126 reporting.
  Task      338 on host nid003126 reporting.
  Task      339 on host nid003126 reporting.
  Task      340 on host nid003126 reporting.
  Task      341 on host nid003126 reporting.
  Task      342 on host nid003126 reporting.
  Task      343 on host nid003126 reporting.
  Task      344 on host nid003126 reporting.
  Task      345 on host nid003126 reporting.
  Task      346 on host nid003126 reporting.
  Task      347 on host nid003126 reporting.
  Task      348 on host nid003126 reporting.
  Task      349 on host nid003126 reporting.
  Task      350 on host nid003126 reporting.
  Task      351 on host nid003126 reporting.
  Task      352 on host nid003126 reporting.
  Task      353 on host nid003126 reporting.
  Task      354 on host nid003126 reporting.
  Task      355 on host nid003126 reporting.
  Task      356 on host nid003126 reporting.
  Task      357 on host nid003126 reporting.
  Task      358 on host nid003126 reporting.
  Task      359 on host nid003126 reporting.
  Task      360 on host nid003126 reporting.
  Task      361 on host nid003126 reporting.
  Task      362 on host nid003126 reporting.
  Task      363 on host nid003126 reporting.
  Task      364 on host nid003126 reporting.
  Task      365 on host nid003126 reporting.
  Task      366 on host nid003126 reporting.
  Task      367 on host nid003126 reporting.
  Task      368 on host nid003126 reporting.
  Task      369 on host nid003126 reporting.
  Task      370 on host nid003126 reporting.
  Task      371 on host nid003126 reporting.
  Task      372 on host nid003126 reporting.
  Task      373 on host nid003126 reporting.
  Task      374 on host nid003126 reporting.
  Task      375 on host nid003126 reporting.
  Task      376 on host nid003126 reporting.
  Task      377 on host nid003126 reporting.
  Task      378 on host nid003126 reporting.
  Task      379 on host nid003126 reporting.
  Task      380 on host nid003126 reporting.
  Task      381 on host nid003126 reporting.
  Task      382 on host nid003126 reporting.
  Task      383 on host nid003126 reporting.
  Task      384 on host nid003127 reporting.
  Task      385 on host nid003127 reporting.
  Task      386 on host nid003127 reporting.
  Task      387 on host nid003127 reporting.
  Task      388 on host nid003127 reporting.
  Task      389 on host nid003127 reporting.
  Task      390 on host nid003127 reporting.
  Task      391 on host nid003127 reporting.
  Task      392 on host nid003127 reporting.
  Task      393 on host nid003127 reporting.
  Task      394 on host nid003127 reporting.
  Task      395 on host nid003127 reporting.
  Task      396 on host nid003127 reporting.
  Task      397 on host nid003127 reporting.
  Task      398 on host nid003127 reporting.
  Task      399 on host nid003127 reporting.
  Task      400 on host nid003127 reporting.
  Task      401 on host nid003127 reporting.
  Task      402 on host nid003127 reporting.
  Task      403 on host nid003127 reporting.
  Task      404 on host nid003127 reporting.
  Task      405 on host nid003127 reporting.
  Task      406 on host nid003127 reporting.
  Task      407 on host nid003127 reporting.
  Task      408 on host nid003127 reporting.
  Task      409 on host nid003127 reporting.
  Task      410 on host nid003127 reporting.
  Task      411 on host nid003127 reporting.
  Task      412 on host nid003127 reporting.
  Task      413 on host nid003127 reporting.
  Task      414 on host nid003127 reporting.
  Task      415 on host nid003127 reporting.
  Task      416 on host nid003127 reporting.
  Task      417 on host nid003127 reporting.
  Task      418 on host nid003127 reporting.
  Task      419 on host nid003127 reporting.
  Task      420 on host nid003127 reporting.
  Task      421 on host nid003127 reporting.
  Task      422 on host nid003127 reporting.
  Task      423 on host nid003127 reporting.
  Task      424 on host nid003127 reporting.
  Task      425 on host nid003127 reporting.
  Task      426 on host nid003127 reporting.
  Task      427 on host nid003127 reporting.
  Task      428 on host nid003127 reporting.
  Task      429 on host nid003127 reporting.
  Task      430 on host nid003127 reporting.
  Task      431 on host nid003127 reporting.
  Task      432 on host nid003127 reporting.
  Task      433 on host nid003127 reporting.
  Task      434 on host nid003127 reporting.
  Task      435 on host nid003127 reporting.
  Task      436 on host nid003127 reporting.
  Task      437 on host nid003127 reporting.
  Task      438 on host nid003127 reporting.
  Task      439 on host nid003127 reporting.
  Task      440 on host nid003127 reporting.
  Task      441 on host nid003127 reporting.
  Task      442 on host nid003127 reporting.
  Task      443 on host nid003127 reporting.
  Task      444 on host nid003127 reporting.
  Task      445 on host nid003127 reporting.
  Task      446 on host nid003127 reporting.
  Task      447 on host nid003127 reporting.
  Task      448 on host nid003127 reporting.
  Task      449 on host nid003127 reporting.
  Task      450 on host nid003127 reporting.
  Task      451 on host nid003127 reporting.
  Task      452 on host nid003127 reporting.
  Task      453 on host nid003127 reporting.
  Task      454 on host nid003127 reporting.
  Task      455 on host nid003127 reporting.
  Task      456 on host nid003127 reporting.
  Task      457 on host nid003127 reporting.
  Task      458 on host nid003127 reporting.
  Task      459 on host nid003127 reporting.
  Task      460 on host nid003127 reporting.
  Task      461 on host nid003127 reporting.
  Task      462 on host nid003127 reporting.
  Task      463 on host nid003127 reporting.
  Task      464 on host nid003127 reporting.
  Task      465 on host nid003127 reporting.
  Task      466 on host nid003127 reporting.
  Task      467 on host nid003127 reporting.
  Task      468 on host nid003127 reporting.
  Task      469 on host nid003127 reporting.
  Task      470 on host nid003127 reporting.
  Task      471 on host nid003127 reporting.
  Task      472 on host nid003127 reporting.
  Task      473 on host nid003127 reporting.
  Task      474 on host nid003127 reporting.
  Task      475 on host nid003127 reporting.
  Task      476 on host nid003127 reporting.
  Task      477 on host nid003127 reporting.
  Task      478 on host nid003127 reporting.
  Task      479 on host nid003127 reporting.
  Task      480 on host nid003127 reporting.
  Task      481 on host nid003127 reporting.
  Task      482 on host nid003127 reporting.
  Task      483 on host nid003127 reporting.
  Task      484 on host nid003127 reporting.
  Task      485 on host nid003127 reporting.
  Task      486 on host nid003127 reporting.
  Task      487 on host nid003127 reporting.
  Task      488 on host nid003127 reporting.
  Task      489 on host nid003127 reporting.
  Task      490 on host nid003127 reporting.
  Task      491 on host nid003127 reporting.
  Task      492 on host nid003127 reporting.
  Task      493 on host nid003127 reporting.
  Task      494 on host nid003127 reporting.
  Task      495 on host nid003127 reporting.
  Task      496 on host nid003127 reporting.
  Task      497 on host nid003127 reporting.
  Task      498 on host nid003127 reporting.
  Task      499 on host nid003127 reporting.
  Task      500 on host nid003127 reporting.
  Task      501 on host nid003127 reporting.
  Task      502 on host nid003127 reporting.
  Task      503 on host nid003127 reporting.
  Task      504 on host nid003127 reporting.
  Task      505 on host nid003127 reporting.
  Task      506 on host nid003127 reporting.
  Task      507 on host nid003127 reporting.
  Task      508 on host nid003127 reporting.
  Task      509 on host nid003127 reporting.
  Task      510 on host nid003127 reporting.
  Task      511 on host nid003127 reporting.

  Performing system and environment tests:
  | Environment variable OMP_NUM_THREADS correctly set to 1.
  | Checking for ScaLAPACK...
  | Testing pdtran()...
  | All pdtran() tests passed.

  Obtaining array dimensions for all initial allocations:
  
  -----------------------------------------------------------------------
  Parsing control.in (first pass over file, find array dimensions only).
  The contents of control.in will be repeated verbatim below
  unless switched off by setting 'verbatim_writeout .false.' .
  in the first line of control.in .
  -----------------------------------------------------------------------
  
  xc               pbesol
  charge           0.
  spin             none
  relativistic atomic_zora scalar
  sc_accuracy_rho       1E-7
  ################################################################################
  #
  #  FHI-aims code project
  #  Volker Blum, Fritz Haber Institute Berlin, 2009
  #
  #  Suggested "tight" defaults for S atom (to be pasted into control.in file)
  #
  #  Revised Jan 04, 2011, following tests (SiC) done by Lydia Nemec:
  #     d and g functions of tier 2 now enabled by default.
  #
  ################################################################################
    species        S
  #     global species definitions
      nucleus             16
      mass                32.065
  #
      l_hartree           6
  #
      cut_pot             4.0          2.0  1.0
      basis_dep_cutoff    1e-4
  #
      radial_base         44 7.0
      radial_multiplier   2
      angular_grids       specified
        division   0.4665  110
        division   0.5810  194
        division   0.7139  302
        division   0.8274  434
  #      division   0.9105  590
  #      division   1.0975  770
  #      division   1.2028  974
  #      outer_grid  974
        outer_grid  434
  ################################################################################
  #
  #  Definition of "minimal" basis
  #
  ################################################################################
  #     valence basis states
      valence      3  s   2.
      valence      3  p   4.
  #     ion occupancy
      ion_occ      3  s   1.
      ion_occ      3  p   3.
  ################################################################################
  #
  #  Suggested additional basis functions. For production calculations,
  #  uncomment them one after another (the most important basis functions are
  #  listed first).
  #
  #  Constructed for dimers: 1.6 A, 1.9 A, 2.5 A, 3.25 A, 4.0 A
  #
  ################################################################################
  #  "First tier" - improvements: -652.81 meV to -45.53 meV
       ionic 3 d auto
       hydro 2 p 1.8
       hydro 4 f 7
       ionic 3 s auto
  #  "Second tier" - improvements: -30.20 meV to -1.74 meV
       hydro 4 d 6.2
       hydro 5 g 10.8
  #     hydro 4 p 4.9
  #     hydro 5 f 10
  #     hydro 1 s 0.8
  #  "Third tier" - improvements: -1.04 meV to -0.20 meV
  #     hydro 3 d 3.9
  #     hydro 3 d 2.7
  #     hydro 5 g 12
  #     hydro 4 p 10.4
  #     hydro 5 f 12.4
  #     hydro 2 s 1.9
  #  "Fourth tier" - improvements: -0.35 meV to -0.06 meV
  #     hydro 4 d 10.4
  #     hydro 4 p 7.2
  #     hydro 4 d 10
  #     hydro 5 g 19.2
  #     hydro 4 s 12
  
  ################################################################################
  #
  # For methods that use the localized form of the "resolution of identity" for
  # the two-electron Coulomb operator (RI_method LVL), particularly Hartree-Fock and
  # hybrid density functional calculations, the highest accuracy can be obtained by
  # uncommenting the line beginning with "for_aux"  below, thus adding an extra g radial
  # function to the construction of the product basis set for the expansion.
  # See Ref. New J. Phys. 17, 093020 (2015) for more information, particularly Figs. 1 and 6.
  #
  ################################################################################
  #
  # for_aux hydro 5 g 6.0
  
  -----------------------------------------------------------------------
  Completed first pass over input file control.in .
  -----------------------------------------------------------------------
  
  
  -----------------------------------------------------------------------
  Parsing geometry.in (first pass over file, find array dimensions only).
  The contents of geometry.in will be repeated verbatim below
  unless switched off by setting 'verbatim_writeout .false.' .
  in the first line of geometry.in .
  -----------------------------------------------------------------------
  
  #
  # This is the geometry file that corresponds to the current relaxation step.
  # If you do not want this file to be written, set the "write_restart_geometry" flag to .false.
  #  aims_uuid : 4CF48A0A-C8F4-47B7-A0DD-C0774DA1A996
  #
  atom       2.36746782     -0.00000000      0.48499304 S
  atom      -0.00000000      2.36746782      0.48499304 S
  atom      -2.36746782     -0.00000000      0.48499304 S
  atom       0.00000000     -2.36746782      0.48499304 S
  atom       1.67404284     -1.67404284     -0.48499304 S
  atom      -1.67404284     -1.67404284     -0.48499304 S
  atom      -1.67404284      1.67404284     -0.48499304 S
  atom       1.67404284      1.67404284     -0.48499304 S
  #
  # What follows is the current estimated Hessian matrix constructed by the BFGS algorithm.
  # This is NOT the true Hessian matrix of the system.
  # If you do not want this information here, switch it off using the "hessian_to_restart_geometry" keyword.
  #
  trust_radius             0.2000000030
  hessian_file
  
  -----------------------------------------------------------------------
  Completed first pass over input file geometry.in .
  -----------------------------------------------------------------------
  

  Basic array size parameters:
  | Number of species                 :        1
  | Number of atoms                   :        8
  | Max. basis fn. angular momentum   :        4
  | Max. atomic/ionic basis occupied n:        3
  | Max. number of basis fn. types    :        3
  | Max. radial fns per species/type  :        5
  | Max. logarithmic grid size        :     1357
  | Max. radial integration grid size :       89
  | Max. angular integration grid size:      434
  | Max. angular grid division number :        8
  | Radial grid for Hartree potential :     1357
  | Number of spin channels           :        1

------------------------------------------------------------
          Reading file control.in.
------------------------------------------------------------
  XC: Using PBEsol gradient-corrected functionals.
  Charge =   0.000000E+00: Neutral system requested explicitly.
  Spin treatment: No spin polarisation.
  Scalar relativistic treatment of kinetic energy: on-site free-atom approximation to ZORA.
  Convergence accuracy of self-consistent charge density:  0.1000E-06

  Reading configuration options for species S                   .
  | Found nuclear charge :  16.0000
  | Found atomic mass :    32.064999999999998      amu
  | Found l_max for Hartree potential  :   6
  | Found cutoff potl. onset [A], width [A], scale factor :    4.00000    2.00000    1.00000
  | Threshold for basis-dependent cutoff potential is   0.100000E-03
  | Found data for basic radial integration grid :    44 points, outermost radius =    7.000 A
  | Found multiplier for basic radial grid :   2
  | Found angular grid specification: user-specified.
  | Specified grid contains     5 separate shells.
  | Check grid settings after all constraints further below.
  | Found free-atom valence shell :  3 s   2.000
  | Found free-atom valence shell :  3 p   4.000
  | Found free-ion valence shell :  3 s   1.000
  | Found free-ion valence shell :  3 p   3.000
  | Found ionic basis function :  3 d , default cutoff radius.
  | Found hydrogenic basis function :  2 p   1.800
  | Found hydrogenic basis function :  4 f   7.000
  | Found ionic basis function :  3 s , default cutoff radius.
  | Found hydrogenic basis function :  4 d   6.200
  | Found hydrogenic basis function :  5 g  10.800
  Species S                   : Missing cutoff potential type.
  Defaulting to exp(1/x)/(1-x)^2 type cutoff potential.
  Species S : No 'logarithmic' tag. Using default grid for free atom:
  | Default logarithmic grid data [bohr] : 0.1000E-03 0.1000E+03 0.1012E+01
  | Will include ionic basis functions of  2.0-fold positive S                    ion.
  Species S : On-site basis accuracy parameter (for Gram-Schmidt orthonormalisation) not specified.
  Using default value basis_acc =  0.1000000E-03.
  Species S                   : Using default innermost maximum threshold i_radial=  2 for radial functions.
  Species S                   : Default cutoff onset for free atom density etc. : 0.40000000E+01 AA.
  Species S                   : Basic radial grid will be enhanced according to radial_multiplier =   2, to contain    89 grid points.

  Finished reading input file 'control.in'.

------------------------------------------------------------


------------------------------------------------------------
          Reading geometry description geometry.in.
------------------------------------------------------------
 * Large trust radius value found - resetting to the current value of max_atomic_move,      0.20000000 A.
  Found keyword 'hessian_file', indicating that this is the continuation of a structure optimization.
  However, the control.in file does not request the geometry to be optimized.
  Ignoring the request for a file 'hessian.aims' to be present.
  | The smallest distance between any two atoms is         2.05526899 AA.
  | The first atom of this pair is atom number                      1 .
  | The second atom of this pair is atom number                     5 .
  Input structure read successfully.
  The structure contains        8 atoms,  and a total of        128.000 electrons.

  Input geometry:
  | No unit cell requested.
  | Atomic structure:
  |       Atom                x [A]            y [A]            z [A]
  |    1: Species S             2.36746782       -0.00000000        0.48499304
  |    2: Species S            -0.00000000        2.36746782        0.48499304
  |    3: Species S            -2.36746782       -0.00000000        0.48499304
  |    4: Species S             0.00000000       -2.36746782        0.48499304
  |    5: Species S             1.67404284       -1.67404284       -0.48499304
  |    6: Species S            -1.67404284       -1.67404284       -0.48499304
  |    7: Species S            -1.67404284        1.67404284       -0.48499304
  |    8: Species S             1.67404284        1.67404284       -0.48499304


  Finished reading input file 'control.in'.


------------------------------------------------------------
          Reading geometry description geometry.in.
------------------------------------------------------------

  Consistency checks for stacksize environment parameter are next.

  | Maximum stacksize for task 0: unlimited
  | Maximum stacksize for task 1: unlimited
  | Maximum stacksize for task 2: unlimited
  | Maximum stacksize for task 3: unlimited
  | Maximum stacksize for task 4: unlimited
  | Maximum stacksize for task 5: unlimited
  | Maximum stacksize for task 6: unlimited
  | Maximum stacksize for task 7: unlimited
  | Maximum stacksize for task 8: unlimited
  | Maximum stacksize for task 9: unlimited
  | Maximum stacksize for task 10: unlimited
  | Maximum stacksize for task 11: unlimited
  | Maximum stacksize for task 12: unlimited
  | Maximum stacksize for task 13: unlimited
  | Maximum stacksize for task 14: unlimited
  | Maximum stacksize for task 15: unlimited
  | Maximum stacksize for task 16: unlimited
  | Maximum stacksize for task 17: unlimited
  | Maximum stacksize for task 18: unlimited
  | Maximum stacksize for task 19: unlimited
  | Maximum stacksize for task 20: unlimited
  | Maximum stacksize for task 21: unlimited
  | Maximum stacksize for task 22: unlimited
  | Maximum stacksize for task 23: unlimited
  | Maximum stacksize for task 24: unlimited
  | Maximum stacksize for task 25: unlimited
  | Maximum stacksize for task 26: unlimited
  | Maximum stacksize for task 27: unlimited
  | Maximum stacksize for task 28: unlimited
  | Maximum stacksize for task 29: unlimited
  | Maximum stacksize for task 30: unlimited
  | Maximum stacksize for task 31: unlimited
  | Maximum stacksize for task 32: unlimited
  | Maximum stacksize for task 33: unlimited
  | Maximum stacksize for task 34: unlimited
  | Maximum stacksize for task 35: unlimited
  | Maximum stacksize for task 36: unlimited
  | Maximum stacksize for task 37: unlimited
  | Maximum stacksize for task 38: unlimited
  | Maximum stacksize for task 39: unlimited
  | Maximum stacksize for task 40: unlimited
  | Maximum stacksize for task 41: unlimited
  | Maximum stacksize for task 42: unlimited
  | Maximum stacksize for task 43: unlimited
  | Maximum stacksize for task 44: unlimited
  | Maximum stacksize for task 45: unlimited
  | Maximum stacksize for task 46: unlimited
  | Maximum stacksize for task 47: unlimited
  | Maximum stacksize for task 48: unlimited
  | Maximum stacksize for task 49: unlimited
  | Maximum stacksize for task 50: unlimited
  | Maximum stacksize for task 51: unlimited
  | Maximum stacksize for task 52: unlimited
  | Maximum stacksize for task 53: unlimited
  | Maximum stacksize for task 54: unlimited
  | Maximum stacksize for task 55: unlimited
  | Maximum stacksize for task 56: unlimited
  | Maximum stacksize for task 57: unlimited
  | Maximum stacksize for task 58: unlimited
  | Maximum stacksize for task 59: unlimited
  | Maximum stacksize for task 60: unlimited
  | Maximum stacksize for task 61: unlimited
  | Maximum stacksize for task 62: unlimited
  | Maximum stacksize for task 63: unlimited
  | Maximum stacksize for task 64: unlimited
  | Maximum stacksize for task 65: unlimited
  | Maximum stacksize for task 66: unlimited
  | Maximum stacksize for task 67: unlimited
  | Maximum stacksize for task 68: unlimited
  | Maximum stacksize for task 69: unlimited
  | Maximum stacksize for task 70: unlimited
  | Maximum stacksize for task 71: unlimited
  | Maximum stacksize for task 72: unlimited
  | Maximum stacksize for task 73: unlimited
  | Maximum stacksize for task 74: unlimited
  | Maximum stacksize for task 75: unlimited
  | Maximum stacksize for task 76: unlimited
  | Maximum stacksize for task 77: unlimited
  | Maximum stacksize for task 78: unlimited
  | Maximum stacksize for task 79: unlimited
  | Maximum stacksize for task 80: unlimited
  | Maximum stacksize for task 81: unlimited
  | Maximum stacksize for task 82: unlimited
  | Maximum stacksize for task 83: unlimited
  | Maximum stacksize for task 84: unlimited
  | Maximum stacksize for task 85: unlimited
  | Maximum stacksize for task 86: unlimited
  | Maximum stacksize for task 87: unlimited
  | Maximum stacksize for task 88: unlimited
  | Maximum stacksize for task 89: unlimited
  | Maximum stacksize for task 90: unlimited
  | Maximum stacksize for task 91: unlimited
  | Maximum stacksize for task 92: unlimited
  | Maximum stacksize for task 93: unlimited
  | Maximum stacksize for task 94: unlimited
  | Maximum stacksize for task 95: unlimited
  | Maximum stacksize for task 96: unlimited
  | Maximum stacksize for task 97: unlimited
  | Maximum stacksize for task 98: unlimited
  | Maximum stacksize for task 99: unlimited
  | Maximum stacksize for task 100: unlimited
  | Maximum stacksize for task 101: unlimited
  | Maximum stacksize for task 102: unlimited
  | Maximum stacksize for task 103: unlimited
  | Maximum stacksize for task 104: unlimited
  | Maximum stacksize for task 105: unlimited
  | Maximum stacksize for task 106: unlimited
  | Maximum stacksize for task 107: unlimited
  | Maximum stacksize for task 108: unlimited
  | Maximum stacksize for task 109: unlimited
  | Maximum stacksize for task 110: unlimited
  | Maximum stacksize for task 111: unlimited
  | Maximum stacksize for task 112: unlimited
  | Maximum stacksize for task 113: unlimited
  | Maximum stacksize for task 114: unlimited
  | Maximum stacksize for task 115: unlimited
  | Maximum stacksize for task 116: unlimited
  | Maximum stacksize for task 117: unlimited
  | Maximum stacksize for task 118: unlimited
  | Maximum stacksize for task 119: unlimited
  | Maximum stacksize for task 120: unlimited
  | Maximum stacksize for task 121: unlimited
  | Maximum stacksize for task 122: unlimited
  | Maximum stacksize for task 123: unlimited
  | Maximum stacksize for task 124: unlimited
  | Maximum stacksize for task 125: unlimited
  | Maximum stacksize for task 126: unlimited
  | Maximum stacksize for task 127: unlimited
  | Maximum stacksize for task 128: unlimited
  | Maximum stacksize for task 129: unlimited
  | Maximum stacksize for task 130: unlimited
  | Maximum stacksize for task 131: unlimited
  | Maximum stacksize for task 132: unlimited
  | Maximum stacksize for task 133: unlimited
  | Maximum stacksize for task 134: unlimited
  | Maximum stacksize for task 135: unlimited
  | Maximum stacksize for task 136: unlimited
  | Maximum stacksize for task 137: unlimited
  | Maximum stacksize for task 138: unlimited
  | Maximum stacksize for task 139: unlimited
  | Maximum stacksize for task 140: unlimited
  | Maximum stacksize for task 141: unlimited
  | Maximum stacksize for task 142: unlimited
  | Maximum stacksize for task 143: unlimited
  | Maximum stacksize for task 144: unlimited
  | Maximum stacksize for task 145: unlimited
  | Maximum stacksize for task 146: unlimited
  | Maximum stacksize for task 147: unlimited
  | Maximum stacksize for task 148: unlimited
  | Maximum stacksize for task 149: unlimited
  | Maximum stacksize for task 150: unlimited
  | Maximum stacksize for task 151: unlimited
  | Maximum stacksize for task 152: unlimited
  | Maximum stacksize for task 153: unlimited
  | Maximum stacksize for task 154: unlimited
  | Maximum stacksize for task 155: unlimited
  | Maximum stacksize for task 156: unlimited
  | Maximum stacksize for task 157: unlimited
  | Maximum stacksize for task 158: unlimited
  | Maximum stacksize for task 159: unlimited
  | Maximum stacksize for task 160: unlimited
  | Maximum stacksize for task 161: unlimited
  | Maximum stacksize for task 162: unlimited
  | Maximum stacksize for task 163: unlimited
  | Maximum stacksize for task 164: unlimited
  | Maximum stacksize for task 165: unlimited
  | Maximum stacksize for task 166: unlimited
  | Maximum stacksize for task 167: unlimited
  | Maximum stacksize for task 168: unlimited
  | Maximum stacksize for task 169: unlimited
  | Maximum stacksize for task 170: unlimited
  | Maximum stacksize for task 171: unlimited
  | Maximum stacksize for task 172: unlimited
  | Maximum stacksize for task 173: unlimited
  | Maximum stacksize for task 174: unlimited
  | Maximum stacksize for task 175: unlimited
  | Maximum stacksize for task 176: unlimited
  | Maximum stacksize for task 177: unlimited
  | Maximum stacksize for task 178: unlimited
  | Maximum stacksize for task 179: unlimited
  | Maximum stacksize for task 180: unlimited
  | Maximum stacksize for task 181: unlimited
  | Maximum stacksize for task 182: unlimited
  | Maximum stacksize for task 183: unlimited
  | Maximum stacksize for task 184: unlimited
  | Maximum stacksize for task 185: unlimited
  | Maximum stacksize for task 186: unlimited
  | Maximum stacksize for task 187: unlimited
  | Maximum stacksize for task 188: unlimited
  | Maximum stacksize for task 189: unlimited
  | Maximum stacksize for task 190: unlimited
  | Maximum stacksize for task 191: unlimited
  | Maximum stacksize for task 192: unlimited
  | Maximum stacksize for task 193: unlimited
  | Maximum stacksize for task 194: unlimited
  | Maximum stacksize for task 195: unlimited
  | Maximum stacksize for task 196: unlimited
  | Maximum stacksize for task 197: unlimited
  | Maximum stacksize for task 198: unlimited
  | Maximum stacksize for task 199: unlimited
  | Maximum stacksize for task 200: unlimited
  | Maximum stacksize for task 201: unlimited
  | Maximum stacksize for task 202: unlimited
  | Maximum stacksize for task 203: unlimited
  | Maximum stacksize for task 204: unlimited
  | Maximum stacksize for task 205: unlimited
  | Maximum stacksize for task 206: unlimited
  | Maximum stacksize for task 207: unlimited
  | Maximum stacksize for task 208: unlimited
  | Maximum stacksize for task 209: unlimited
  | Maximum stacksize for task 210: unlimited
  | Maximum stacksize for task 211: unlimited
  | Maximum stacksize for task 212: unlimited
  | Maximum stacksize for task 213: unlimited
  | Maximum stacksize for task 214: unlimited
  | Maximum stacksize for task 215: unlimited
  | Maximum stacksize for task 216: unlimited
  | Maximum stacksize for task 217: unlimited
  | Maximum stacksize for task 218: unlimited
  | Maximum stacksize for task 219: unlimited
  | Maximum stacksize for task 220: unlimited
  | Maximum stacksize for task 221: unlimited
  | Maximum stacksize for task 222: unlimited
  | Maximum stacksize for task 223: unlimited
  | Maximum stacksize for task 224: unlimited
  | Maximum stacksize for task 225: unlimited
  | Maximum stacksize for task 226: unlimited
  | Maximum stacksize for task 227: unlimited
  | Maximum stacksize for task 228: unlimited
  | Maximum stacksize for task 229: unlimited
  | Maximum stacksize for task 230: unlimited
  | Maximum stacksize for task 231: unlimited
  | Maximum stacksize for task 232: unlimited
  | Maximum stacksize for task 233: unlimited
  | Maximum stacksize for task 234: unlimited
  | Maximum stacksize for task 235: unlimited
  | Maximum stacksize for task 236: unlimited
  | Maximum stacksize for task 237: unlimited
  | Maximum stacksize for task 238: unlimited
  | Maximum stacksize for task 239: unlimited
  | Maximum stacksize for task 240: unlimited
  | Maximum stacksize for task 241: unlimited
  | Maximum stacksize for task 242: unlimited
  | Maximum stacksize for task 243: unlimited
  | Maximum stacksize for task 244: unlimited
  | Maximum stacksize for task 245: unlimited
  | Maximum stacksize for task 246: unlimited
  | Maximum stacksize for task 247: unlimited
  | Maximum stacksize for task 248: unlimited
  | Maximum stacksize for task 249: unlimited
  | Maximum stacksize for task 250: unlimited
  | Maximum stacksize for task 251: unlimited
  | Maximum stacksize for task 252: unlimited
  | Maximum stacksize for task 253: unlimited
  | Maximum stacksize for task 254: unlimited
  | Maximum stacksize for task 255: unlimited
  | Maximum stacksize for task 256: unlimited
  | Maximum stacksize for task 257: unlimited
  | Maximum stacksize for task 258: unlimited
  | Maximum stacksize for task 259: unlimited
  | Maximum stacksize for task 260: unlimited
  | Maximum stacksize for task 261: unlimited
  | Maximum stacksize for task 262: unlimited
  | Maximum stacksize for task 263: unlimited
  | Maximum stacksize for task 264: unlimited
  | Maximum stacksize for task 265: unlimited
  | Maximum stacksize for task 266: unlimited
  | Maximum stacksize for task 267: unlimited
  | Maximum stacksize for task 268: unlimited
  | Maximum stacksize for task 269: unlimited
  | Maximum stacksize for task 270: unlimited
  | Maximum stacksize for task 271: unlimited
  | Maximum stacksize for task 272: unlimited
  | Maximum stacksize for task 273: unlimited
  | Maximum stacksize for task 274: unlimited
  | Maximum stacksize for task 275: unlimited
  | Maximum stacksize for task 276: unlimited
  | Maximum stacksize for task 277: unlimited
  | Maximum stacksize for task 278: unlimited
  | Maximum stacksize for task 279: unlimited
  | Maximum stacksize for task 280: unlimited
  | Maximum stacksize for task 281: unlimited
  | Maximum stacksize for task 282: unlimited
  | Maximum stacksize for task 283: unlimited
  | Maximum stacksize for task 284: unlimited
  | Maximum stacksize for task 285: unlimited
  | Maximum stacksize for task 286: unlimited
  | Maximum stacksize for task 287: unlimited
  | Maximum stacksize for task 288: unlimited
  | Maximum stacksize for task 289: unlimited
  | Maximum stacksize for task 290: unlimited
  | Maximum stacksize for task 291: unlimited
  | Maximum stacksize for task 292: unlimited
  | Maximum stacksize for task 293: unlimited
  | Maximum stacksize for task 294: unlimited
  | Maximum stacksize for task 295: unlimited
  | Maximum stacksize for task 296: unlimited
  | Maximum stacksize for task 297: unlimited
  | Maximum stacksize for task 298: unlimited
  | Maximum stacksize for task 299: unlimited
  | Maximum stacksize for task 300: unlimited
  | Maximum stacksize for task 301: unlimited
  | Maximum stacksize for task 302: unlimited
  | Maximum stacksize for task 303: unlimited
  | Maximum stacksize for task 304: unlimited
  | Maximum stacksize for task 305: unlimited
  | Maximum stacksize for task 306: unlimited
  | Maximum stacksize for task 307: unlimited
  | Maximum stacksize for task 308: unlimited
  | Maximum stacksize for task 309: unlimited
  | Maximum stacksize for task 310: unlimited
  | Maximum stacksize for task 311: unlimited
  | Maximum stacksize for task 312: unlimited
  | Maximum stacksize for task 313: unlimited
  | Maximum stacksize for task 314: unlimited
  | Maximum stacksize for task 315: unlimited
  | Maximum stacksize for task 316: unlimited
  | Maximum stacksize for task 317: unlimited
  | Maximum stacksize for task 318: unlimited
  | Maximum stacksize for task 319: unlimited
  | Maximum stacksize for task 320: unlimited
  | Maximum stacksize for task 321: unlimited
  | Maximum stacksize for task 322: unlimited
  | Maximum stacksize for task 323: unlimited
  | Maximum stacksize for task 324: unlimited
  | Maximum stacksize for task 325: unlimited
  | Maximum stacksize for task 326: unlimited
  | Maximum stacksize for task 327: unlimited
  | Maximum stacksize for task 328: unlimited
  | Maximum stacksize for task 329: unlimited
  | Maximum stacksize for task 330: unlimited
  | Maximum stacksize for task 331: unlimited
  | Maximum stacksize for task 332: unlimited
  | Maximum stacksize for task 333: unlimited
  | Maximum stacksize for task 334: unlimited
  | Maximum stacksize for task 335: unlimited
  | Maximum stacksize for task 336: unlimited
  | Maximum stacksize for task 337: unlimited
  | Maximum stacksize for task 338: unlimited
  | Maximum stacksize for task 339: unlimited
  | Maximum stacksize for task 340: unlimited
  | Maximum stacksize for task 341: unlimited
  | Maximum stacksize for task 342: unlimited
  | Maximum stacksize for task 343: unlimited
  | Maximum stacksize for task 344: unlimited
  | Maximum stacksize for task 345: unlimited
  | Maximum stacksize for task 346: unlimited
  | Maximum stacksize for task 347: unlimited
  | Maximum stacksize for task 348: unlimited
  | Maximum stacksize for task 349: unlimited
  | Maximum stacksize for task 350: unlimited
  | Maximum stacksize for task 351: unlimited
  | Maximum stacksize for task 352: unlimited
  | Maximum stacksize for task 353: unlimited
  | Maximum stacksize for task 354: unlimited
  | Maximum stacksize for task 355: unlimited
  | Maximum stacksize for task 356: unlimited
  | Maximum stacksize for task 357: unlimited
  | Maximum stacksize for task 358: unlimited
  | Maximum stacksize for task 359: unlimited
  | Maximum stacksize for task 360: unlimited
  | Maximum stacksize for task 361: unlimited
  | Maximum stacksize for task 362: unlimited
  | Maximum stacksize for task 363: unlimited
  | Maximum stacksize for task 364: unlimited
  | Maximum stacksize for task 365: unlimited
  | Maximum stacksize for task 366: unlimited
  | Maximum stacksize for task 367: unlimited
  | Maximum stacksize for task 368: unlimited
  | Maximum stacksize for task 369: unlimited
  | Maximum stacksize for task 370: unlimited
  | Maximum stacksize for task 371: unlimited
  | Maximum stacksize for task 372: unlimited
  | Maximum stacksize for task 373: unlimited
  | Maximum stacksize for task 374: unlimited
  | Maximum stacksize for task 375: unlimited
  | Maximum stacksize for task 376: unlimited
  | Maximum stacksize for task 377: unlimited
  | Maximum stacksize for task 378: unlimited
  | Maximum stacksize for task 379: unlimited
  | Maximum stacksize for task 380: unlimited
  | Maximum stacksize for task 381: unlimited
  | Maximum stacksize for task 382: unlimited
  | Maximum stacksize for task 383: unlimited
  | Maximum stacksize for task 384: unlimited
  | Maximum stacksize for task 385: unlimited
  | Maximum stacksize for task 386: unlimited
  | Maximum stacksize for task 387: unlimited
  | Maximum stacksize for task 388: unlimited
  | Maximum stacksize for task 389: unlimited
  | Maximum stacksize for task 390: unlimited
  | Maximum stacksize for task 391: unlimited
  | Maximum stacksize for task 392: unlimited
  | Maximum stacksize for task 393: unlimited
  | Maximum stacksize for task 394: unlimited
  | Maximum stacksize for task 395: unlimited
  | Maximum stacksize for task 396: unlimited
  | Maximum stacksize for task 397: unlimited
  | Maximum stacksize for task 398: unlimited
  | Maximum stacksize for task 399: unlimited
  | Maximum stacksize for task 400: unlimited
  | Maximum stacksize for task 401: unlimited
  | Maximum stacksize for task 402: unlimited
  | Maximum stacksize for task 403: unlimited
  | Maximum stacksize for task 404: unlimited
  | Maximum stacksize for task 405: unlimited
  | Maximum stacksize for task 406: unlimited
  | Maximum stacksize for task 407: unlimited
  | Maximum stacksize for task 408: unlimited
  | Maximum stacksize for task 409: unlimited
  | Maximum stacksize for task 410: unlimited
  | Maximum stacksize for task 411: unlimited
  | Maximum stacksize for task 412: unlimited
  | Maximum stacksize for task 413: unlimited
  | Maximum stacksize for task 414: unlimited
  | Maximum stacksize for task 415: unlimited
  | Maximum stacksize for task 416: unlimited
  | Maximum stacksize for task 417: unlimited
  | Maximum stacksize for task 418: unlimited
  | Maximum stacksize for task 419: unlimited
  | Maximum stacksize for task 420: unlimited
  | Maximum stacksize for task 421: unlimited
  | Maximum stacksize for task 422: unlimited
  | Maximum stacksize for task 423: unlimited
  | Maximum stacksize for task 424: unlimited
  | Maximum stacksize for task 425: unlimited
  | Maximum stacksize for task 426: unlimited
  | Maximum stacksize for task 427: unlimited
  | Maximum stacksize for task 428: unlimited
  | Maximum stacksize for task 429: unlimited
  | Maximum stacksize for task 430: unlimited
  | Maximum stacksize for task 431: unlimited
  | Maximum stacksize for task 432: unlimited
  | Maximum stacksize for task 433: unlimited
  | Maximum stacksize for task 434: unlimited
  | Maximum stacksize for task 435: unlimited
  | Maximum stacksize for task 436: unlimited
  | Maximum stacksize for task 437: unlimited
  | Maximum stacksize for task 438: unlimited
  | Maximum stacksize for task 439: unlimited
  | Maximum stacksize for task 440: unlimited
  | Maximum stacksize for task 441: unlimited
  | Maximum stacksize for task 442: unlimited
  | Maximum stacksize for task 443: unlimited
  | Maximum stacksize for task 444: unlimited
  | Maximum stacksize for task 445: unlimited
  | Maximum stacksize for task 446: unlimited
  | Maximum stacksize for task 447: unlimited
  | Maximum stacksize for task 448: unlimited
  | Maximum stacksize for task 449: unlimited
  | Maximum stacksize for task 450: unlimited
  | Maximum stacksize for task 451: unlimited
  | Maximum stacksize for task 452: unlimited
  | Maximum stacksize for task 453: unlimited
  | Maximum stacksize for task 454: unlimited
  | Maximum stacksize for task 455: unlimited
  | Maximum stacksize for task 456: unlimited
  | Maximum stacksize for task 457: unlimited
  | Maximum stacksize for task 458: unlimited
  | Maximum stacksize for task 459: unlimited
  | Maximum stacksize for task 460: unlimited
  | Maximum stacksize for task 461: unlimited
  | Maximum stacksize for task 462: unlimited
  | Maximum stacksize for task 463: unlimited
  | Maximum stacksize for task 464: unlimited
  | Maximum stacksize for task 465: unlimited
  | Maximum stacksize for task 466: unlimited
  | Maximum stacksize for task 467: unlimited
  | Maximum stacksize for task 468: unlimited
  | Maximum stacksize for task 469: unlimited
  | Maximum stacksize for task 470: unlimited
  | Maximum stacksize for task 471: unlimited
  | Maximum stacksize for task 472: unlimited
  | Maximum stacksize for task 473: unlimited
  | Maximum stacksize for task 474: unlimited
  | Maximum stacksize for task 475: unlimited
  | Maximum stacksize for task 476: unlimited
  | Maximum stacksize for task 477: unlimited
  | Maximum stacksize for task 478: unlimited
  | Maximum stacksize for task 479: unlimited
  | Maximum stacksize for task 480: unlimited
  | Maximum stacksize for task 481: unlimited
  | Maximum stacksize for task 482: unlimited
  | Maximum stacksize for task 483: unlimited
  | Maximum stacksize for task 484: unlimited
  | Maximum stacksize for task 485: unlimited
  | Maximum stacksize for task 486: unlimited
  | Maximum stacksize for task 487: unlimited
  | Maximum stacksize for task 488: unlimited
  | Maximum stacksize for task 489: unlimited
  | Maximum stacksize for task 490: unlimited
  | Maximum stacksize for task 491: unlimited
  | Maximum stacksize for task 492: unlimited
  | Maximum stacksize for task 493: unlimited
  | Maximum stacksize for task 494: unlimited
  | Maximum stacksize for task 495: unlimited
  | Maximum stacksize for task 496: unlimited
  | Maximum stacksize for task 497: unlimited
  | Maximum stacksize for task 498: unlimited
  | Maximum stacksize for task 499: unlimited
  | Maximum stacksize for task 500: unlimited
  | Maximum stacksize for task 501: unlimited
  | Maximum stacksize for task 502: unlimited
  | Maximum stacksize for task 503: unlimited
  | Maximum stacksize for task 504: unlimited
  | Maximum stacksize for task 505: unlimited
  | Maximum stacksize for task 506: unlimited
  | Maximum stacksize for task 507: unlimited
  | Maximum stacksize for task 508: unlimited
  | Maximum stacksize for task 509: unlimited
  | Maximum stacksize for task 510: unlimited
  | Maximum stacksize for task 511: unlimited
  | Current stacksize for task 0: unlimited
  | Current stacksize for task 1: unlimited
  | Current stacksize for task 2: unlimited
  | Current stacksize for task 3: unlimited
  | Current stacksize for task 4: unlimited
  | Current stacksize for task 5: unlimited
  | Current stacksize for task 6: unlimited
  | Current stacksize for task 7: unlimited
  | Current stacksize for task 8: unlimited
  | Current stacksize for task 9: unlimited
  | Current stacksize for task 10: unlimited
  | Current stacksize for task 11: unlimited
  | Current stacksize for task 12: unlimited
  | Current stacksize for task 13: unlimited
  | Current stacksize for task 14: unlimited
  | Current stacksize for task 15: unlimited
  | Current stacksize for task 16: unlimited
  | Current stacksize for task 17: unlimited
  | Current stacksize for task 18: unlimited
  | Current stacksize for task 19: unlimited
  | Current stacksize for task 20: unlimited
  | Current stacksize for task 21: unlimited
  | Current stacksize for task 22: unlimited
  | Current stacksize for task 23: unlimited
  | Current stacksize for task 24: unlimited
  | Current stacksize for task 25: unlimited
  | Current stacksize for task 26: unlimited
  | Current stacksize for task 27: unlimited
  | Current stacksize for task 28: unlimited
  | Current stacksize for task 29: unlimited
  | Current stacksize for task 30: unlimited
  | Current stacksize for task 31: unlimited
  | Current stacksize for task 32: unlimited
  | Current stacksize for task 33: unlimited
  | Current stacksize for task 34: unlimited
  | Current stacksize for task 35: unlimited
  | Current stacksize for task 36: unlimited
  | Current stacksize for task 37: unlimited
  | Current stacksize for task 38: unlimited
  | Current stacksize for task 39: unlimited
  | Current stacksize for task 40: unlimited
  | Current stacksize for task 41: unlimited
  | Current stacksize for task 42: unlimited
  | Current stacksize for task 43: unlimited
  | Current stacksize for task 44: unlimited
  | Current stacksize for task 45: unlimited
  | Current stacksize for task 46: unlimited
  | Current stacksize for task 47: unlimited
  | Current stacksize for task 48: unlimited
  | Current stacksize for task 49: unlimited
  | Current stacksize for task 50: unlimited
  | Current stacksize for task 51: unlimited
  | Current stacksize for task 52: unlimited
  | Current stacksize for task 53: unlimited
  | Current stacksize for task 54: unlimited
  | Current stacksize for task 55: unlimited
  | Current stacksize for task 56: unlimited
  | Current stacksize for task 57: unlimited
  | Current stacksize for task 58: unlimited
  | Current stacksize for task 59: unlimited
  | Current stacksize for task 60: unlimited
  | Current stacksize for task 61: unlimited
  | Current stacksize for task 62: unlimited
  | Current stacksize for task 63: unlimited
  | Current stacksize for task 64: unlimited
  | Current stacksize for task 65: unlimited
  | Current stacksize for task 66: unlimited
  | Current stacksize for task 67: unlimited
  | Current stacksize for task 68: unlimited
  | Current stacksize for task 69: unlimited
  | Current stacksize for task 70: unlimited
  | Current stacksize for task 71: unlimited
  | Current stacksize for task 72: unlimited
  | Current stacksize for task 73: unlimited
  | Current stacksize for task 74: unlimited
  | Current stacksize for task 75: unlimited
  | Current stacksize for task 76: unlimited
  | Current stacksize for task 77: unlimited
  | Current stacksize for task 78: unlimited
  | Current stacksize for task 79: unlimited
  | Current stacksize for task 80: unlimited
  | Current stacksize for task 81: unlimited
  | Current stacksize for task 82: unlimited
  | Current stacksize for task 83: unlimited
  | Current stacksize for task 84: unlimited
  | Current stacksize for task 85: unlimited
  | Current stacksize for task 86: unlimited
  | Current stacksize for task 87: unlimited
  | Current stacksize for task 88: unlimited
  | Current stacksize for task 89: unlimited
  | Current stacksize for task 90: unlimited
  | Current stacksize for task 91: unlimited
  | Current stacksize for task 92: unlimited
  | Current stacksize for task 93: unlimited
  | Current stacksize for task 94: unlimited
  | Current stacksize for task 95: unlimited
  | Current stacksize for task 96: unlimited
  | Current stacksize for task 97: unlimited
  | Current stacksize for task 98: unlimited
  | Current stacksize for task 99: unlimited
  | Current stacksize for task 100: unlimited
  | Current stacksize for task 101: unlimited
  | Current stacksize for task 102: unlimited
  | Current stacksize for task 103: unlimited
  | Current stacksize for task 104: unlimited
  | Current stacksize for task 105: unlimited
  | Current stacksize for task 106: unlimited
  | Current stacksize for task 107: unlimited
  | Current stacksize for task 108: unlimited
  | Current stacksize for task 109: unlimited
  | Current stacksize for task 110: unlimited
  | Current stacksize for task 111: unlimited
  | Current stacksize for task 112: unlimited
  | Current stacksize for task 113: unlimited
  | Current stacksize for task 114: unlimited
  | Current stacksize for task 115: unlimited
  | Current stacksize for task 116: unlimited
  | Current stacksize for task 117: unlimited
  | Current stacksize for task 118: unlimited
  | Current stacksize for task 119: unlimited
  | Current stacksize for task 120: unlimited
  | Current stacksize for task 121: unlimited
  | Current stacksize for task 122: unlimited
  | Current stacksize for task 123: unlimited
  | Current stacksize for task 124: unlimited
  | Current stacksize for task 125: unlimited
  | Current stacksize for task 126: unlimited
  | Current stacksize for task 127: unlimited
  | Current stacksize for task 128: unlimited
  | Current stacksize for task 129: unlimited
  | Current stacksize for task 130: unlimited
  | Current stacksize for task 131: unlimited
  | Current stacksize for task 132: unlimited
  | Current stacksize for task 133: unlimited
  | Current stacksize for task 134: unlimited
  | Current stacksize for task 135: unlimited
  | Current stacksize for task 136: unlimited
  | Current stacksize for task 137: unlimited
  | Current stacksize for task 138: unlimited
  | Current stacksize for task 139: unlimited
  | Current stacksize for task 140: unlimited
  | Current stacksize for task 141: unlimited
  | Current stacksize for task 142: unlimited
  | Current stacksize for task 143: unlimited
  | Current stacksize for task 144: unlimited
  | Current stacksize for task 145: unlimited
  | Current stacksize for task 146: unlimited
  | Current stacksize for task 147: unlimited
  | Current stacksize for task 148: unlimited
  | Current stacksize for task 149: unlimited
  | Current stacksize for task 150: unlimited
  | Current stacksize for task 151: unlimited
  | Current stacksize for task 152: unlimited
  | Current stacksize for task 153: unlimited
  | Current stacksize for task 154: unlimited
  | Current stacksize for task 155: unlimited
  | Current stacksize for task 156: unlimited
  | Current stacksize for task 157: unlimited
  | Current stacksize for task 158: unlimited
  | Current stacksize for task 159: unlimited
  | Current stacksize for task 160: unlimited
  | Current stacksize for task 161: unlimited
  | Current stacksize for task 162: unlimited
  | Current stacksize for task 163: unlimited
  | Current stacksize for task 164: unlimited
  | Current stacksize for task 165: unlimited
  | Current stacksize for task 166: unlimited
  | Current stacksize for task 167: unlimited
  | Current stacksize for task 168: unlimited
  | Current stacksize for task 169: unlimited
  | Current stacksize for task 170: unlimited
  | Current stacksize for task 171: unlimited
  | Current stacksize for task 172: unlimited
  | Current stacksize for task 173: unlimited
  | Current stacksize for task 174: unlimited
  | Current stacksize for task 175: unlimited
  | Current stacksize for task 176: unlimited
  | Current stacksize for task 177: unlimited
  | Current stacksize for task 178: unlimited
  | Current stacksize for task 179: unlimited
  | Current stacksize for task 180: unlimited
  | Current stacksize for task 181: unlimited
  | Current stacksize for task 182: unlimited
  | Current stacksize for task 183: unlimited
  | Current stacksize for task 184: unlimited
  | Current stacksize for task 185: unlimited
  | Current stacksize for task 186: unlimited
  | Current stacksize for task 187: unlimited
  | Current stacksize for task 188: unlimited
  | Current stacksize for task 189: unlimited
  | Current stacksize for task 190: unlimited
  | Current stacksize for task 191: unlimited
  | Current stacksize for task 192: unlimited
  | Current stacksize for task 193: unlimited
  | Current stacksize for task 194: unlimited
  | Current stacksize for task 195: unlimited
  | Current stacksize for task 196: unlimited
  | Current stacksize for task 197: unlimited
  | Current stacksize for task 198: unlimited
  | Current stacksize for task 199: unlimited
  | Current stacksize for task 200: unlimited
  | Current stacksize for task 201: unlimited
  | Current stacksize for task 202: unlimited
  | Current stacksize for task 203: unlimited
  | Current stacksize for task 204: unlimited
  | Current stacksize for task 205: unlimited
  | Current stacksize for task 206: unlimited
  | Current stacksize for task 207: unlimited
  | Current stacksize for task 208: unlimited
  | Current stacksize for task 209: unlimited
  | Current stacksize for task 210: unlimited
  | Current stacksize for task 211: unlimited
  | Current stacksize for task 212: unlimited
  | Current stacksize for task 213: unlimited
  | Current stacksize for task 214: unlimited
  | Current stacksize for task 215: unlimited
  | Current stacksize for task 216: unlimited
  | Current stacksize for task 217: unlimited
  | Current stacksize for task 218: unlimited
  | Current stacksize for task 219: unlimited
  | Current stacksize for task 220: unlimited
  | Current stacksize for task 221: unlimited
  | Current stacksize for task 222: unlimited
  | Current stacksize for task 223: unlimited
  | Current stacksize for task 224: unlimited
  | Current stacksize for task 225: unlimited
  | Current stacksize for task 226: unlimited
  | Current stacksize for task 227: unlimited
  | Current stacksize for task 228: unlimited
  | Current stacksize for task 229: unlimited
  | Current stacksize for task 230: unlimited
  | Current stacksize for task 231: unlimited
  | Current stacksize for task 232: unlimited
  | Current stacksize for task 233: unlimited
  | Current stacksize for task 234: unlimited
  | Current stacksize for task 235: unlimited
  | Current stacksize for task 236: unlimited
  | Current stacksize for task 237: unlimited
  | Current stacksize for task 238: unlimited
  | Current stacksize for task 239: unlimited
  | Current stacksize for task 240: unlimited
  | Current stacksize for task 241: unlimited
  | Current stacksize for task 242: unlimited
  | Current stacksize for task 243: unlimited
  | Current stacksize for task 244: unlimited
  | Current stacksize for task 245: unlimited
  | Current stacksize for task 246: unlimited
  | Current stacksize for task 247: unlimited
  | Current stacksize for task 248: unlimited
  | Current stacksize for task 249: unlimited
  | Current stacksize for task 250: unlimited
  | Current stacksize for task 251: unlimited
  | Current stacksize for task 252: unlimited
  | Current stacksize for task 253: unlimited
  | Current stacksize for task 254: unlimited
  | Current stacksize for task 255: unlimited
  | Current stacksize for task 256: unlimited
  | Current stacksize for task 257: unlimited
  | Current stacksize for task 258: unlimited
  | Current stacksize for task 259: unlimited
  | Current stacksize for task 260: unlimited
  | Current stacksize for task 261: unlimited
  | Current stacksize for task 262: unlimited
  | Current stacksize for task 263: unlimited
  | Current stacksize for task 264: unlimited
  | Current stacksize for task 265: unlimited
  | Current stacksize for task 266: unlimited
  | Current stacksize for task 267: unlimited
  | Current stacksize for task 268: unlimited
  | Current stacksize for task 269: unlimited
  | Current stacksize for task 270: unlimited
  | Current stacksize for task 271: unlimited
  | Current stacksize for task 272: unlimited
  | Current stacksize for task 273: unlimited
  | Current stacksize for task 274: unlimited
  | Current stacksize for task 275: unlimited
  | Current stacksize for task 276: unlimited
  | Current stacksize for task 277: unlimited
  | Current stacksize for task 278: unlimited
  | Current stacksize for task 279: unlimited
  | Current stacksize for task 280: unlimited
  | Current stacksize for task 281: unlimited
  | Current stacksize for task 282: unlimited
  | Current stacksize for task 283: unlimited
  | Current stacksize for task 284: unlimited
  | Current stacksize for task 285: unlimited
  | Current stacksize for task 286: unlimited
  | Current stacksize for task 287: unlimited
  | Current stacksize for task 288: unlimited
  | Current stacksize for task 289: unlimited
  | Current stacksize for task 290: unlimited
  | Current stacksize for task 291: unlimited
  | Current stacksize for task 292: unlimited
  | Current stacksize for task 293: unlimited
  | Current stacksize for task 294: unlimited
  | Current stacksize for task 295: unlimited
  | Current stacksize for task 296: unlimited
  | Current stacksize for task 297: unlimited
  | Current stacksize for task 298: unlimited
  | Current stacksize for task 299: unlimited
  | Current stacksize for task 300: unlimited
  | Current stacksize for task 301: unlimited
  | Current stacksize for task 302: unlimited
  | Current stacksize for task 303: unlimited
  | Current stacksize for task 304: unlimited
  | Current stacksize for task 305: unlimited
  | Current stacksize for task 306: unlimited
  | Current stacksize for task 307: unlimited
  | Current stacksize for task 308: unlimited
  | Current stacksize for task 309: unlimited
  | Current stacksize for task 310: unlimited
  | Current stacksize for task 311: unlimited
  | Current stacksize for task 312: unlimited
  | Current stacksize for task 313: unlimited
  | Current stacksize for task 314: unlimited
  | Current stacksize for task 315: unlimited
  | Current stacksize for task 316: unlimited
  | Current stacksize for task 317: unlimited
  | Current stacksize for task 318: unlimited
  | Current stacksize for task 319: unlimited
  | Current stacksize for task 320: unlimited
  | Current stacksize for task 321: unlimited
  | Current stacksize for task 322: unlimited
  | Current stacksize for task 323: unlimited
  | Current stacksize for task 324: unlimited
  | Current stacksize for task 325: unlimited
  | Current stacksize for task 326: unlimited
  | Current stacksize for task 327: unlimited
  | Current stacksize for task 328: unlimited
  | Current stacksize for task 329: unlimited
  | Current stacksize for task 330: unlimited
  | Current stacksize for task 331: unlimited
  | Current stacksize for task 332: unlimited
  | Current stacksize for task 333: unlimited
  | Current stacksize for task 334: unlimited
  | Current stacksize for task 335: unlimited
  | Current stacksize for task 336: unlimited
  | Current stacksize for task 337: unlimited
  | Current stacksize for task 338: unlimited
  | Current stacksize for task 339: unlimited
  | Current stacksize for task 340: unlimited
  | Current stacksize for task 341: unlimited
  | Current stacksize for task 342: unlimited
  | Current stacksize for task 343: unlimited
  | Current stacksize for task 344: unlimited
  | Current stacksize for task 345: unlimited
  | Current stacksize for task 346: unlimited
  | Current stacksize for task 347: unlimited
  | Current stacksize for task 348: unlimited
  | Current stacksize for task 349: unlimited
  | Current stacksize for task 350: unlimited
  | Current stacksize for task 351: unlimited
  | Current stacksize for task 352: unlimited
  | Current stacksize for task 353: unlimited
  | Current stacksize for task 354: unlimited
  | Current stacksize for task 355: unlimited
  | Current stacksize for task 356: unlimited
  | Current stacksize for task 357: unlimited
  | Current stacksize for task 358: unlimited
  | Current stacksize for task 359: unlimited
  | Current stacksize for task 360: unlimited
  | Current stacksize for task 361: unlimited
  | Current stacksize for task 362: unlimited
  | Current stacksize for task 363: unlimited
  | Current stacksize for task 364: unlimited
  | Current stacksize for task 365: unlimited
  | Current stacksize for task 366: unlimited
  | Current stacksize for task 367: unlimited
  | Current stacksize for task 368: unlimited
  | Current stacksize for task 369: unlimited
  | Current stacksize for task 370: unlimited
  | Current stacksize for task 371: unlimited
  | Current stacksize for task 372: unlimited
  | Current stacksize for task 373: unlimited
  | Current stacksize for task 374: unlimited
  | Current stacksize for task 375: unlimited
  | Current stacksize for task 376: unlimited
  | Current stacksize for task 377: unlimited
  | Current stacksize for task 378: unlimited
  | Current stacksize for task 379: unlimited
  | Current stacksize for task 380: unlimited
  | Current stacksize for task 381: unlimited
  | Current stacksize for task 382: unlimited
  | Current stacksize for task 383: unlimited
  | Current stacksize for task 384: unlimited
  | Current stacksize for task 385: unlimited
  | Current stacksize for task 386: unlimited
  | Current stacksize for task 387: unlimited
  | Current stacksize for task 388: unlimited
  | Current stacksize for task 389: unlimited
  | Current stacksize for task 390: unlimited
  | Current stacksize for task 391: unlimited
  | Current stacksize for task 392: unlimited
  | Current stacksize for task 393: unlimited
  | Current stacksize for task 394: unlimited
  | Current stacksize for task 395: unlimited
  | Current stacksize for task 396: unlimited
  | Current stacksize for task 397: unlimited
  | Current stacksize for task 398: unlimited
  | Current stacksize for task 399: unlimited
  | Current stacksize for task 400: unlimited
  | Current stacksize for task 401: unlimited
  | Current stacksize for task 402: unlimited
  | Current stacksize for task 403: unlimited
  | Current stacksize for task 404: unlimited
  | Current stacksize for task 405: unlimited
  | Current stacksize for task 406: unlimited
  | Current stacksize for task 407: unlimited
  | Current stacksize for task 408: unlimited
  | Current stacksize for task 409: unlimited
  | Current stacksize for task 410: unlimited
  | Current stacksize for task 411: unlimited
  | Current stacksize for task 412: unlimited
  | Current stacksize for task 413: unlimited
  | Current stacksize for task 414: unlimited
  | Current stacksize for task 415: unlimited
  | Current stacksize for task 416: unlimited
  | Current stacksize for task 417: unlimited
  | Current stacksize for task 418: unlimited
  | Current stacksize for task 419: unlimited
  | Current stacksize for task 420: unlimited
  | Current stacksize for task 421: unlimited
  | Current stacksize for task 422: unlimited
  | Current stacksize for task 423: unlimited
  | Current stacksize for task 424: unlimited
  | Current stacksize for task 425: unlimited
  | Current stacksize for task 426: unlimited
  | Current stacksize for task 427: unlimited
  | Current stacksize for task 428: unlimited
  | Current stacksize for task 429: unlimited
  | Current stacksize for task 430: unlimited
  | Current stacksize for task 431: unlimited
  | Current stacksize for task 432: unlimited
  | Current stacksize for task 433: unlimited
  | Current stacksize for task 434: unlimited
  | Current stacksize for task 435: unlimited
  | Current stacksize for task 436: unlimited
[...]
  | Solution of K.-S. eqns.                     :        0.018 s           0.017 s
  | Total energy evaluation                     :        0.000 s           0.000 s

  Partial memory accounting:
  | Current value for overall tracked memory usage:
  |   Minimum:        0.588 MB (on task 119)
  |   Maximum:        0.594 MB (on task   0)
  |   Average:        0.590 MB
  | Peak value for overall tracked memory usage:
  |   Minimum:        2.166 MB (on task 310 after allocating wave)
  |   Maximum:        3.039 MB (on task   1 after allocating wave)
  |   Average:        2.896 MB
  | Largest tracked array allocation so far:
  |   Minimum:        0.897 MB (gradient_basis_wave on task 310)
  |   Maximum:        1.364 MB (gradient_basis_wave on task   1)
  |   Average:        1.295 MB
  Note:  These values currently only include a subset of arrays which are explicitly tracked.
  The "true" memory usage will be greater.
------------------------------------------------------------

------------------------------------------------------------
          Begin self-consistency iteration #   14

  Date     :  20220914, Time     :  153737.152
------------------------------------------------------------
  Pulay mixing of updated and previous charge densities.
  Renormalizing the density to the exact electron count on the 3D integration grid.
  | Formal number of electrons (from input files) :     128.0000000000
  | Integrated number of electrons on 3D grid     :     128.0000000000
  | Charge integration error                      :       0.0000000000
  | Normalization factor for density and gradient :       1.0000000000

  Evaluating partitioned Hartree potential by multipole expansion.
  | Original multipole sum: apparent total charge =   0.116772E-13
  | Sum of charges compensated after spline to logarithmic grids =   0.100290E-05
  | Analytical far-field extrapolation by fixed multipoles:
  | Hartree multipole sum: apparent total charge =   0.116554E-13
  Summing up the Hartree potential.
  Time summed over all CPUs for potential: real work        3.955 s, elapsed        4.206 s
  | RMS charge density error from multipole expansion :   0.560551E-02

  Integrating Hamiltonian matrix: batch-based integration.
  Time summed over all CPUs for integration: real work        2.836 s, elapsed        3.787 s => Consider using load balancing!

  Updating Kohn-Sham eigenvalues and eigenvectors using ELSI and the ELPA eigensolver.
  Starting ELPA eigensolver
  Finished transformation to standard eigenproblem
  | Time :     0.001 s
  Finished solving standard eigenproblem
  | Time :     0.015 s
  Finished back-transformation of eigenvectors
  | Time :     0.001 s

  Obtaining occupation numbers and electronic chemical potential using ELSI.
  | Note that, for insulating systems, the printed 'chemical potential' value is not uniquely defined.
  | It can be anywhere in the energy gap, as long as it correctly separates occupied and unoccupied states.
  | In systems with a gap, the physically relevant chemical potential is the VBM or HOMO.

  | Chemical potential (Fermi level):    -5.17632092 eV
  Highest occupied state (VBM) at     -6.45686106 eV
  | Occupation number:      2.00000000

  Lowest unoccupied state (CBM) at    -3.12692698 eV
  | Occupation number:      0.00000000

  Overall HOMO-LUMO gap:      3.32993408 eV.

  Total energy components:
  | Sum of eigenvalues            :       -1837.03664512 Ha      -49988.31049089 eV
  | XC energy correction          :        -199.96807951 Ha       -5441.40829939 eV
  | XC potential correction       :         261.05402968 Ha        7103.64157701 eV
  | Free-atom electrostatic energy:       -1415.49413631 Ha      -38517.55520071 eV
  | Hartree energy correction     :          -1.83741574 Ha         -49.99862622 eV
  | Entropy correction            :          -0.00000000 Ha          -0.00000000 eV
  | ---------------------------
  | Total energy                  :       -3193.28224700 Ha      -86893.63104019 eV
  | Total energy, T -> 0          :       -3193.28224700 Ha      -86893.63104019 eV  <-- do not rely on this value for anything but (periodic) metals
  | Electronic free energy        :       -3193.28224700 Ha      -86893.63104019 eV

  Derived energy quantities:
  | Kinetic energy                :        3209.40973343 Ha       87332.48227441 eV
  | Electrostatic energy          :       -6202.72390092 Ha     -168784.70501522 eV
  | Energy correction for multipole
  | error in Hartree potential    :          -0.00341596 Ha          -0.09295301 eV
  | Sum of eigenvalues per atom                           :       -6248.53881136 eV
  | Total energy (T->0) per atom                          :      -10861.70388002 eV  <-- do not rely on this value for anything but (periodic) metals
  | Electronic free energy per atom                       :      -10861.70388002 eV

  Self-consistency convergence accuracy:
  | Change of charge density      :  0.4011E-07
  | Change of unmixed KS density  :  0.2475E-07
  | Change of sum of eigenvalues  : -0.1828E-04 eV
  | Change of total energy        :  0.2475E-10 eV

  Writing Kohn-Sham eigenvalues.

  State    Occupation    Eigenvalue [Ha]    Eigenvalue [eV]
      1       2.00000         -88.509946        -2408.47817
      2       2.00000         -88.509946        -2408.47817
      3       2.00000         -88.509946        -2408.47817
      4       2.00000         -88.509946        -2408.47816
      5       2.00000         -88.509944        -2408.47812
      6       2.00000         -88.509944        -2408.47812
      7       2.00000         -88.509944        -2408.47812
      8       2.00000         -88.509944        -2408.47811
      9       2.00000          -7.761164         -211.19201
     10       2.00000          -7.761151         -211.19168
     11       2.00000          -7.761151         -211.19168
     12       2.00000          -7.761121         -211.19085
     13       2.00000          -7.761120         -211.19082
     14       2.00000          -7.761090         -211.18999
     15       2.00000          -7.761090         -211.18999
     16       2.00000          -7.761077         -211.18964
     17       2.00000          -5.745979         -156.35605
     18       2.00000          -5.745928         -156.35465
     19       2.00000          -5.745928         -156.35465
     20       2.00000          -5.745803         -156.35126
     21       2.00000          -5.745802         -156.35123
     22       2.00000          -5.745674         -156.34775
     23       2.00000          -5.745674         -156.34775
     24       2.00000          -5.745622         -156.34632
     25       2.00000          -5.742157         -156.25204
     26       2.00000          -5.742129         -156.25129
     27       2.00000          -5.742129         -156.25129
     28       2.00000          -5.742064         -156.24952
     29       2.00000          -5.742063         -156.24949
     30       2.00000          -5.742002         -156.24783
     31       2.00000          -5.742002         -156.24783
     32       2.00000          -5.741977         -156.24716
     33       2.00000          -5.735232         -156.06359
     34       2.00000          -5.735231         -156.06359
     35       2.00000          -5.735231         -156.06359
     36       2.00000          -5.735231         -156.06358
     37       2.00000          -5.735230         -156.06355
     38       2.00000          -5.735230         -156.06355
     39       2.00000          -5.735230         -156.06355
     40       2.00000          -5.735230         -156.06354
     41       2.00000          -0.808818          -22.00905
     42       2.00000          -0.779009          -21.19792
     43       2.00000          -0.779009          -21.19792
     44       2.00000          -0.700626          -19.06502
     45       2.00000          -0.700625          -19.06498
     46       2.00000          -0.593845          -16.15935
     47       2.00000          -0.593845          -16.15935
     48       2.00000          -0.519880          -14.14666
     49       2.00000          -0.437731          -11.91126
     50       2.00000          -0.410539          -11.17132
     51       2.00000          -0.410539          -11.17132
     52       2.00000          -0.380096          -10.34293
     53       2.00000          -0.351911           -9.57598
     54       2.00000          -0.351909           -9.57593
     55       2.00000          -0.347141           -9.44618
     56       2.00000          -0.347141           -9.44618
     57       2.00000          -0.312282           -8.49763
     58       2.00000          -0.258057           -7.02210
     59       2.00000          -0.258057           -7.02210
     60       2.00000          -0.251396           -6.84084
     61       2.00000          -0.251395           -6.84080
     62       2.00000          -0.241942           -6.58357
     63       2.00000          -0.241942           -6.58357
     64       2.00000          -0.237285           -6.45686
     65       0.00000          -0.114912           -3.12693
     66       0.00000          -0.114912           -3.12693
     67       0.00000          -0.101768           -2.76925
     68       0.00000          -0.070136           -1.90850
     69       0.00000          -0.068925           -1.87554
     70       0.00000          -0.068925           -1.87554
     71       0.00000          -0.062498           -1.70065
     72       0.00000          -0.062496           -1.70060
     73       0.00000           0.038027            1.03476
     74       0.00000           0.060774            1.65375
     75       0.00000           0.060775            1.65378
     76       0.00000           0.075290            2.04876
     77       0.00000           0.075290            2.04876
     78       0.00000           0.090287            2.45683
     79       0.00000           0.090287            2.45683
     80       0.00000           0.102490            2.78888
     81       0.00000           0.104602            2.84635
     82       0.00000           0.105702            2.87631
     83       0.00000           0.128788            3.50451
     84       0.00000           0.130960            3.56361
     85       0.00000           0.130960            3.56361
     86       0.00000           0.136164            3.70522
     87       0.00000           0.136166            3.70526
     88       0.00000           0.156126            4.24839

  Highest occupied state (VBM) at     -6.45686106 eV
  | Occupation number:      2.00000000

  Lowest unoccupied state (CBM) at    -3.12692698 eV
  | Occupation number:      0.00000000

  Overall HOMO-LUMO gap:      3.32993408 eV.

  | Chemical Potential                          :    -5.17632092 eV
  | Note that, for insulating systems, the printed 'chemical potential' value is not uniquely defined.
  | It can be anywhere in the energy gap, as long as it correctly separates occupied and unoccupied states.
  | In systems with a gap, the physically relevant chemical potential is the VBM or HOMO.

  Self-consistency cycle converged.


------------------------------------------------------------
  End self-consistency iteration #    14       :  max(cpu_time)    wall_clock(cpu1)
  | Time for this iteration                     :        0.080 s           0.044 s
  | Charge density update                       :        0.000 s           0.000 s
  | Density mixing                              :        0.039 s           0.003 s
  | Hartree multipole update                    :        0.004 s           0.004 s
  | Hartree multipole summation                 :        0.009 s           0.008 s
  | Integration                                 :        0.009 s           0.010 s
  | Solution of K.-S. eqns.                     :        0.018 s           0.018 s
  | Total energy evaluation                     :        0.000 s           0.000 s

  Partial memory accounting:
  | Current value for overall tracked memory usage:
  |   Minimum:        0.588 MB (on task 119)
  |   Maximum:        0.594 MB (on task   0)
  |   Average:        0.590 MB
  | Peak value for overall tracked memory usage:
  |   Minimum:        2.166 MB (on task 310 after allocating wave)
  |   Maximum:        3.039 MB (on task   1 after allocating wave)
  |   Average:        2.896 MB
  | Largest tracked array allocation so far:
  |   Minimum:        0.897 MB (gradient_basis_wave on task 310)
  |   Maximum:        1.364 MB (gradient_basis_wave on task   1)
  |   Average:        1.295 MB
  Note:  These values currently only include a subset of arrays which are explicitly tracked.
  The "true" memory usage will be greater.
------------------------------------------------------------

  Energy and forces in a compact form:
  | Total energy uncorrected      :         -0.868936310401927E+05 eV
  | Total energy corrected        :         -0.868936310401927E+05 eV  <-- do not rely on this value for anything but (periodic) metals
  | Electronic free energy        :         -0.868936310401927E+05 eV

  ------------------------------------ 
  Start decomposition of the XC Energy 
  ------------------------------------ 
  X and C from original XC functional choice 
  Hartree-Fock Energy :          0.000000000 Ha              0.000000000 eV
  X Energy            :       -194.176739720 Ha          -5283.817925485 eV
  C Energy            :         -5.791339794 Ha           -157.590373903 eV
  XC Energy w/o HF    :       -199.968079514 Ha          -5441.408299389 eV
  Total XC Energy     :       -199.968079514 Ha          -5441.408299389 eV
  ------------------------------------ 
  LDA X and C from self-consistent density 
  X Energy LDA        :       -185.439873031 Ha          -5046.075686675 eV
  C Energy LDA        :         -9.955126297 Ha           -270.892769423 eV
  ------------------------------------ 
  End decomposition of the XC Energy 
  ------------------------------------ 

------------------------------------------------------------

------------------------------------------------------------------------------
  Final output of selected total energy values:

  The following output summarizes some interesting total energy values
  at the end of a run (AFTER all relaxation, molecular dynamics, etc.).

  | Total energy of the DFT / Hartree-Fock s.c.f. calculation      :         -86893.631040193 eV
  | Final zero-broadening corrected energy (caution - metals only) :         -86893.631040193 eV
  | For reference only, the value of 1 Hartree used in FHI-aims is :             27.211384500 eV

  Before relying on these values, please be sure to understand exactly which
  total energy value is referred to by a given number. Different objects may
  all carry the same name 'total energy'. Definitions:

  Total energy of the DFT / Hartree-Fock s.c.f. calculation:
  | Note that this energy does not include ANY quantities calculated after the
  | s.c.f. cycle, in particular not ANY RPA, MP2, etc. many-body perturbation terms.

  Final zero-broadening corrected energy:
  | For metallic systems only, a broadening of the occupation numbers at the Fermi
  | level can be extrapolated back to zero broadening by an electron-gas inspired
  | formula. For all systems that are not real metals, this value can be
  | meaningless and should be avoided.

------------------------------------------------------------------------------
  Methods described in the following list of references were used in this FHI-aims run.
  If you publish the results, please make sure to cite these reference if they apply.
  FHI-aims is an academic code, and for our developers (often, Ph.D. students
  and postdocs), scientific credit in the community is essential.
  Thank you for helping us!

  For any use of FHI-aims, please cite:

    Volker Blum, Ralf Gehrke, Felix Hanke, Paula Havu, Ville Havu,
    Xinguo Ren, Karsten Reuter, and Matthias Scheffler
    'Ab initio molecular simulations with numeric atom-centered orbitals'
    Computer Physics Communications 180, 2175-2196 (2009)
    http://doi.org/10.1016/j.cpc.2009.06.022


  The ELSI infrastructure was used in your run to solve the Kohn-Sham electronic structure.
  Please check out http://elsi-interchange.org to learn more.
  If scalability is important for your project, please acknowledge ELSI by citing:

    V. W-z. Yu, F. Corsetti, A. Garcia, W. P. Huhn, M. Jacquelin, W. Jia,
    B. Lange, L. Lin, J. Lu, W. Mi, A. Seifitokaldani, A. Vazquez-Mayagoitia,
    C. Yang, H. Yang, and V. Blum
    'ELSI: A unified software interface for Kohn-Sham electronic structure solvers'
    Computer Physics Communications 222, 267-285 (2018).
    http://doi.org/10.1016/j.cpc.2017.09.007


  For the real-space grid partitioning and parallelization used in this calculation, please cite:

    Ville Havu, Volker Blum, Paula Havu, and Matthias Scheffler,
    'Efficient O(N) integration for all-electron electronic structure calculation'
    'using numerically tabulated basis functions'
    Journal of Computational Physics 228, 8367-8379 (2009).
    http://doi.org/10.1016/j.jcp.2009.08.008

  Of course, there are many other important community references, e.g., those cited in the
  above references. Our list is limited to references that describe implementations in the
  FHI-aims code. The reason is purely practical (length of this list) - please credit others as well.

------------------------------------------------------------
          Leaving FHI-aims.
          Date     :  20220914, Time     :  153737.240

          Computational steps:
          | Number of self-consistency cycles          :           14
          | Number of SCF (re)initializations          :            1

          Detailed time accounting                     :  max(cpu_time)    wall_clock(cpu1)
          | Total time                                  :        3.437 s           3.824 s
          | Preparation time                            :        0.234 s           0.415 s
          | Boundary condition initalization            :        0.000 s           0.001 s
          | Grid partitioning                           :        0.054 s           0.054 s
          | Preloading free-atom quantities on grid     :        0.007 s           0.007 s
          | Free-atom superposition energy              :        0.001 s           0.001 s
          | Total time for integrations                 :        0.155 s           0.158 s
          | Total time for solution of K.-S. equations  :        1.402 s           1.422 s
          | Total time for density update               :        0.105 s           0.105 s
          | Total time for mixing                       :        0.503 s           0.041 s
          | Total time for Hartree multipole update     :        0.046 s           0.047 s
          | Total time for Hartree multipole sum        :        0.126 s           0.124 s
          | Total time for total energy evaluation      :        0.004 s           0.002 s
          | Total time for scaled ZORA corrections      :        0.000 s           0.000 s

          Partial memory accounting:
          | Residual value for overall tracked memory usage across tasks:     0.000000 MB (should be 0.000000 MB)
          | Peak values for overall tracked memory usage:
          |   Minimum:        2.166 MB (on task 310 after allocating wave)
          |   Maximum:        3.039 MB (on task   1 after allocating wave)
          |   Average:        2.896 MB
          | Largest tracked array allocation:
          |   Minimum:        0.897 MB (gradient_basis_wave on task 310)
          |   Maximum:        1.364 MB (gradient_basis_wave on task   1)
          |   Average:        1.295 MB
          Note:  These values currently only include a subset of arrays which are explicitly tracked.
          The "true" memory usage will be greater.

          Have a nice day.
------------------------------------------------------------
