------------------------------------------------------------
          Invoking FHI-aims ...

          When using FHI-aims, please cite the following reference:

            Volker Blum, Ralf Gehrke, Felix Hanke, Paula Havu,
            Ville Havu, Xinguo Ren, Karsten Reuter, and Matthias Scheffler,
            'Ab Initio Molecular Simulations with Numeric Atom-Centered Orbitals',
            Computer Physics Communications 180, 2175-2196 (2009)

          In addition, many other developments in FHI-aims are likely important for
          your particular application. A partial list of references is given at the end of
          this file. Thank you for giving credit to the authors of these developments.

          For any questions about FHI-aims, please visit our slack channel at

            https://fhi-aims.slack.com

          and our main development and support site at

            https://aims-git.rz-berlin.mpg.de .

          The latter site, in particular, has a wiki to collect information, as well
          as an issue tracker to log discussions, suggest improvements, and report issues
          or bugs. https://aims-git.rz-berlin.mpg.de is also the main development site
          of the project and all new and updated code versions can be obtained there.
          Please send an email to aims-coordinators@fhi-berlin.mpg.de and we will add
          you to these sites. They are for you and everyone is welcome there.

------------------------------------------------------------



  Date     :  20220721, Time     :  144819.760
  Time zero on CPU 1             :   0.160197000000000E+01  s.
  Internal wall clock time zero  :           427646899.760  s.

  FHI-aims created a unique identifier for this run for later identification
  aims_uuid : 330012D7-E038-4D02-ACC1-BDCACEA8D0EA

  Build configuration of the current instance of FHI-aims
  -------------------------------------------------------
  FHI-aims version      : 220619
  Commit number         : 375d76c9a
  CMake host system     : Linux-4.12.14-197.78_9.1.64-cray_shasta_c
  CMake version         : 3.22.1
  Fortran compiler      : /opt/cray/pe/craype/2.7.6/bin/ftn (GNU) version 10.2.0
  Fortran compiler flags: -O2 -fallow-argument-mismatch -ffree-line-length-none
  C compiler            : /opt/cray/pe/craype/2.7.6/bin/cc (GNU) version 10.2.0
  C compiler flags      : -O2
  Using MPI
  Using ScaLAPACK
  Using LibXC
  Using i-PI
  Using RLSY
  Linking against:

  Using      256 parallel tasks.
  Task        0 on host nid001910 reporting.
  Task        1 on host nid001910 reporting.
  Task        2 on host nid001910 reporting.
  Task        3 on host nid001910 reporting.
  Task        4 on host nid001910 reporting.
  Task        5 on host nid001910 reporting.
  Task        6 on host nid001910 reporting.
  Task        7 on host nid001910 reporting.
  Task        8 on host nid001910 reporting.
  Task        9 on host nid001910 reporting.
  Task       10 on host nid001910 reporting.
  Task       11 on host nid001910 reporting.
  Task       12 on host nid001910 reporting.
  Task       13 on host nid001910 reporting.
  Task       14 on host nid001910 reporting.
  Task       15 on host nid001910 reporting.
  Task       16 on host nid001910 reporting.
  Task       17 on host nid001910 reporting.
  Task       18 on host nid001910 reporting.
  Task       19 on host nid001910 reporting.
  Task       20 on host nid001910 reporting.
  Task       21 on host nid001910 reporting.
  Task       22 on host nid001910 reporting.
  Task       23 on host nid001910 reporting.
  Task       24 on host nid001910 reporting.
  Task       25 on host nid001910 reporting.
  Task       26 on host nid001910 reporting.
  Task       27 on host nid001910 reporting.
  Task       28 on host nid001910 reporting.
  Task       29 on host nid001910 reporting.
  Task       30 on host nid001910 reporting.
  Task       31 on host nid001910 reporting.
  Task       32 on host nid001910 reporting.
  Task       33 on host nid001910 reporting.
  Task       34 on host nid001910 reporting.
  Task       35 on host nid001910 reporting.
  Task       36 on host nid001910 reporting.
  Task       37 on host nid001910 reporting.
  Task       38 on host nid001910 reporting.
  Task       39 on host nid001910 reporting.
  Task       40 on host nid001910 reporting.
  Task       41 on host nid001910 reporting.
  Task       42 on host nid001910 reporting.
  Task       43 on host nid001910 reporting.
  Task       44 on host nid001910 reporting.
  Task       45 on host nid001910 reporting.
  Task       46 on host nid001910 reporting.
  Task       47 on host nid001910 reporting.
  Task       48 on host nid001910 reporting.
  Task       49 on host nid001910 reporting.
  Task       50 on host nid001910 reporting.
  Task       51 on host nid001910 reporting.
  Task       52 on host nid001910 reporting.
  Task       53 on host nid001910 reporting.
  Task       54 on host nid001910 reporting.
  Task       55 on host nid001910 reporting.
  Task       56 on host nid001910 reporting.
  Task       57 on host nid001910 reporting.
  Task       58 on host nid001910 reporting.
  Task       59 on host nid001910 reporting.
  Task       60 on host nid001910 reporting.
  Task       61 on host nid001910 reporting.
  Task       62 on host nid001910 reporting.
  Task       63 on host nid001910 reporting.
  Task       64 on host nid001916 reporting.
  Task       65 on host nid001916 reporting.
  Task       66 on host nid001916 reporting.
  Task       67 on host nid001916 reporting.
  Task       68 on host nid001916 reporting.
  Task       69 on host nid001916 reporting.
  Task       70 on host nid001916 reporting.
  Task       71 on host nid001916 reporting.
  Task       72 on host nid001916 reporting.
  Task       73 on host nid001916 reporting.
  Task       74 on host nid001916 reporting.
  Task       75 on host nid001916 reporting.
  Task       76 on host nid001916 reporting.
  Task       77 on host nid001916 reporting.
  Task       78 on host nid001916 reporting.
  Task       79 on host nid001916 reporting.
  Task       80 on host nid001916 reporting.
  Task       81 on host nid001916 reporting.
  Task       82 on host nid001916 reporting.
  Task       83 on host nid001916 reporting.
  Task       84 on host nid001916 reporting.
  Task       85 on host nid001916 reporting.
  Task       86 on host nid001916 reporting.
  Task       87 on host nid001916 reporting.
  Task       88 on host nid001916 reporting.
  Task       89 on host nid001916 reporting.
  Task       90 on host nid001916 reporting.
  Task       91 on host nid001916 reporting.
  Task       92 on host nid001916 reporting.
  Task       93 on host nid001916 reporting.
  Task       94 on host nid001916 reporting.
  Task       95 on host nid001916 reporting.
  Task       96 on host nid001916 reporting.
  Task       97 on host nid001916 reporting.
  Task       98 on host nid001916 reporting.
  Task       99 on host nid001916 reporting.
  Task      100 on host nid001916 reporting.
  Task      101 on host nid001916 reporting.
  Task      102 on host nid001916 reporting.
  Task      103 on host nid001916 reporting.
  Task      104 on host nid001916 reporting.
  Task      105 on host nid001916 reporting.
  Task      106 on host nid001916 reporting.
  Task      107 on host nid001916 reporting.
  Task      108 on host nid001916 reporting.
  Task      109 on host nid001916 reporting.
  Task      110 on host nid001916 reporting.
  Task      111 on host nid001916 reporting.
  Task      112 on host nid001916 reporting.
  Task      113 on host nid001916 reporting.
  Task      114 on host nid001916 reporting.
  Task      115 on host nid001916 reporting.
  Task      116 on host nid001916 reporting.
  Task      117 on host nid001916 reporting.
  Task      118 on host nid001916 reporting.
  Task      119 on host nid001916 reporting.
  Task      120 on host nid001916 reporting.
  Task      121 on host nid001916 reporting.
  Task      122 on host nid001916 reporting.
  Task      123 on host nid001916 reporting.
  Task      124 on host nid001916 reporting.
  Task      125 on host nid001916 reporting.
  Task      126 on host nid001916 reporting.
  Task      127 on host nid001916 reporting.
  Task      128 on host nid001940 reporting.
  Task      129 on host nid001940 reporting.
  Task      130 on host nid001940 reporting.
  Task      131 on host nid001940 reporting.
  Task      132 on host nid001940 reporting.
  Task      133 on host nid001940 reporting.
  Task      134 on host nid001940 reporting.
  Task      135 on host nid001940 reporting.
  Task      136 on host nid001940 reporting.
  Task      137 on host nid001940 reporting.
  Task      138 on host nid001940 reporting.
  Task      139 on host nid001940 reporting.
  Task      140 on host nid001940 reporting.
  Task      141 on host nid001940 reporting.
  Task      142 on host nid001940 reporting.
  Task      143 on host nid001940 reporting.
  Task      144 on host nid001940 reporting.
  Task      145 on host nid001940 reporting.
  Task      146 on host nid001940 reporting.
  Task      147 on host nid001940 reporting.
  Task      148 on host nid001940 reporting.
  Task      149 on host nid001940 reporting.
  Task      150 on host nid001940 reporting.
  Task      151 on host nid001940 reporting.
  Task      152 on host nid001940 reporting.
  Task      153 on host nid001940 reporting.
  Task      154 on host nid001940 reporting.
  Task      155 on host nid001940 reporting.
  Task      156 on host nid001940 reporting.
  Task      157 on host nid001940 reporting.
  Task      158 on host nid001940 reporting.
  Task      159 on host nid001940 reporting.
  Task      160 on host nid001940 reporting.
  Task      161 on host nid001940 reporting.
  Task      162 on host nid001940 reporting.
  Task      163 on host nid001940 reporting.
  Task      164 on host nid001940 reporting.
  Task      165 on host nid001940 reporting.
  Task      166 on host nid001940 reporting.
  Task      167 on host nid001940 reporting.
  Task      168 on host nid001940 reporting.
  Task      169 on host nid001940 reporting.
  Task      170 on host nid001940 reporting.
  Task      171 on host nid001940 reporting.
  Task      172 on host nid001940 reporting.
  Task      173 on host nid001940 reporting.
  Task      174 on host nid001940 reporting.
  Task      175 on host nid001940 reporting.
  Task      176 on host nid001940 reporting.
  Task      177 on host nid001940 reporting.
  Task      178 on host nid001940 reporting.
  Task      179 on host nid001940 reporting.
  Task      180 on host nid001940 reporting.
  Task      181 on host nid001940 reporting.
  Task      182 on host nid001940 reporting.
  Task      183 on host nid001940 reporting.
  Task      184 on host nid001940 reporting.
  Task      185 on host nid001940 reporting.
  Task      186 on host nid001940 reporting.
  Task      187 on host nid001940 reporting.
  Task      188 on host nid001940 reporting.
  Task      189 on host nid001940 reporting.
  Task      190 on host nid001940 reporting.
  Task      191 on host nid001940 reporting.
  Task      192 on host nid001941 reporting.
  Task      193 on host nid001941 reporting.
  Task      194 on host nid001941 reporting.
  Task      195 on host nid001941 reporting.
  Task      196 on host nid001941 reporting.
  Task      197 on host nid001941 reporting.
  Task      198 on host nid001941 reporting.
  Task      199 on host nid001941 reporting.
  Task      200 on host nid001941 reporting.
  Task      201 on host nid001941 reporting.
  Task      202 on host nid001941 reporting.
  Task      203 on host nid001941 reporting.
  Task      204 on host nid001941 reporting.
  Task      205 on host nid001941 reporting.
  Task      206 on host nid001941 reporting.
  Task      207 on host nid001941 reporting.
  Task      208 on host nid001941 reporting.
  Task      209 on host nid001941 reporting.
  Task      210 on host nid001941 reporting.
  Task      211 on host nid001941 reporting.
  Task      212 on host nid001941 reporting.
  Task      213 on host nid001941 reporting.
  Task      214 on host nid001941 reporting.
  Task      215 on host nid001941 reporting.
  Task      216 on host nid001941 reporting.
  Task      217 on host nid001941 reporting.
  Task      218 on host nid001941 reporting.
  Task      219 on host nid001941 reporting.
  Task      220 on host nid001941 reporting.
  Task      221 on host nid001941 reporting.
  Task      222 on host nid001941 reporting.
  Task      223 on host nid001941 reporting.
  Task      224 on host nid001941 reporting.
  Task      225 on host nid001941 reporting.
  Task      226 on host nid001941 reporting.
  Task      227 on host nid001941 reporting.
  Task      228 on host nid001941 reporting.
  Task      229 on host nid001941 reporting.
  Task      230 on host nid001941 reporting.
  Task      231 on host nid001941 reporting.
  Task      232 on host nid001941 reporting.
  Task      233 on host nid001941 reporting.
  Task      234 on host nid001941 reporting.
  Task      235 on host nid001941 reporting.
  Task      236 on host nid001941 reporting.
  Task      237 on host nid001941 reporting.
  Task      238 on host nid001941 reporting.
  Task      239 on host nid001941 reporting.
  Task      240 on host nid001941 reporting.
  Task      241 on host nid001941 reporting.
  Task      242 on host nid001941 reporting.
  Task      243 on host nid001941 reporting.
  Task      244 on host nid001941 reporting.
  Task      245 on host nid001941 reporting.
  Task      246 on host nid001941 reporting.
  Task      247 on host nid001941 reporting.
  Task      248 on host nid001941 reporting.
  Task      249 on host nid001941 reporting.
  Task      250 on host nid001941 reporting.
  Task      251 on host nid001941 reporting.
  Task      252 on host nid001941 reporting.
  Task      253 on host nid001941 reporting.
  Task      254 on host nid001941 reporting.
  Task      255 on host nid001941 reporting.

  Performing system and environment tests:
  | Environment variable OMP_NUM_THREADS correctly set to 1.
  | Checking for ScaLAPACK...
  | Testing pdtran()...
  | All pdtran() tests passed.

  Obtaining array dimensions for all initial allocations:
  
  -----------------------------------------------------------------------
  Parsing control.in (first pass over file, find array dimensions only).
  The contents of control.in will be repeated verbatim below
  unless switched off by setting 'verbatim_writeout .false.' .
  in the first line of control.in .
  -----------------------------------------------------------------------
  
  xc               hse06 0.11
  hse_unit bohr-1
  exx_band_structure_version 1
  charge           0.
  spin             none
  relativistic atomic_zora scalar
  k_grid                8 8 4
  sc_accuracy_rho       1E-7
  include_spin_orbit
  output band   0.00000  0.00000  0.00000   0.50000  0.50000  1.00000   41 G  Y
   output band   0.50000  0.50000  1.00000   0.48578  0.48578  1.02709    2 Y  F
   output band   0.48578  0.48578  1.02709   0.50000  0.50000  0.50000   22 F  L
   output band   0.50000  0.50000  0.50000   0.29490  0.70510  0.50000   28 L  I
   output band  -0.29490  0.29490 -0.50000   0.00000  0.00000 -0.50000   40 I1 Z
   output band   0.00000  0.00000 -0.50000   0.51422  0.51422 -0.02709   36 Z  F1
   output band   0.50000  0.50000  1.00000   0.34206  0.65794  1.00000   22 Y  X1
   output band  -0.34206  0.34206  0.00000   0.00000  0.00000  0.00000   47 X  G
   output band   0.00000  0.00000  0.00000   0.00000  0.50000  0.50000   40 G  N
   output band   0.00000  0.50000  0.00000   0.00000  0.00000  0.00000   40 M  G
  output dos -10 10 51 0.1
  
  
  ################################################################################
  #
  #  FHI-aims code project
  #  Volker Blum, Fritz Haber Institute Berlin, 2009
  #
  #  Suggested "tight" defaults for Ba atom (to be pasted into control.in file)
  #
  #  The onset of the cutoff pot'l WAS set to 8 A by default, because the neutral
  #  Ba atom is a large atom. However, this is very expensive. The radius should be
  #  much smaller in real-world situations, where Ba will be ionic. Please check
  #  and reduce the cutoff radius explicitly.
  #
  #  2015/11/12 : f and g functions from tier2 added to default basis set choice.
  #               These functions make a difference in the "delta test".
  #               Reduced the default cutoff radius to 6AA. The free-atom 6s function
  #               requires more. However, 6AA is already VERY expensive for
  #               any production calculations. In fact, revisit this choice for
  #               ionic systems to see if a smaller cutoff radius will do.
  #
  ################################################################################
    species          Ba
  #     global species definitions
      nucleus        56
      mass           137.327
  #
      l_hartree      6
  #
      cut_pot        6.0  2.0  1.0
      basis_dep_cutoff    1e-4
  #
      radial_base    65  7.0
      radial_multiplier  2
      angular_grids specified
        division   0.6752  110
        division   0.9746  194
        division   1.2241  302
        division   1.3850  434
  #      division   1.4734  590
  #      division   1.6010  770
  #      division   4.8366  974
  #      outer_grid  974
        outer_grid  434
  ################################################################################
  #
  #  Definition of "minimal" basis
  #
  ################################################################################
  #     valence basis states
      valence      6  s   2.
      valence      5  p   6.
      valence      4  d  10.
  #     ion occupancy
      ion_occ      6  s   1.
      ion_occ      5  p   6.
      ion_occ      4  d  10.
  ################################################################################
  #
  #  Suggested additional basis functions. For production calculations,
  #  uncomment them one after another (the most important basis functions are
  #  listed first).
  #
  #  Constructed for dimers: 2.65, 3.00, 3.50, 4.40, 5.50 Ang
  #
  ################################################################################
  #  "First tier" - improvements: -1277.43 meV to -9.16 meV
       ionic 5 d auto
       ionic 4 f auto
       hydro 3 p 2.7
       hydro 4 s 3.3
  #  "Second tier" - improvements: -64.04 (!) meV to -0.25 meV
       hydro 4 f 5.8
       hydro 5 g 7.4
  #     hydro 4 d 4.5
  #     hydro 6 h 11.2
  #     hydro 5 p 6.6
  #     hydro 2 s 3.2
  #  "Third tier" - max. impr. -1.16 meV, min. impr. -0.08 meV
  #     hydro 5 f 7.4
  #     hydro 5 g 10.8
  #     hydro 4 d 2.3
  #     hydro 4 p 3.7
  #     hydro 5 s 4.0
  #  Further functions - impr. -0.35 meV and below
  #     hydro 5 d 3.5
  #     hydro 6 d 0.4
  #     hydro 2 p 2.5
  #     hydro 5 f 12
  #     hydro 6 d 8.8
  ################################################################################
  #
  #  FHI-aims code project
  #  Volker Blum, Fritz Haber Institute Berlin, 2009
  #
  #  Suggested "tight" defaults for Zr atom (to be pasted into control.in file)
  #
  ################################################################################
    species          Zr
  #     global species definitions
      nucleus        40
      mass           91.224
  #
      l_hartree      6
  #
      cut_pot        4.0  2.0  1.0
      basis_dep_cutoff    1e-4
  #
      radial_base    58  7.0
      radial_multiplier  2
      angular_grids specified
        division   0.3653   50
        division   0.8035  110
        division   1.2273  194
        division   1.4586  302
        division   1.6764  434
  #      division   1.9671  590
  #      division   2.1961  770
  #      division   2.3240  974
  #      division   3.4772 1202
  #      outer_grid  974
        outer_grid  434
  ################################################################################
  #
  #  Definition of "minimal" basis
  #
  ################################################################################
  #     valence basis states
      valence      5  s   2.
      valence      4  p   6.
      valence      4  d   2.
  #     ion occupancy
      ion_occ      5  s   1.
      ion_occ      4  p   6.
      ion_occ      4  d   1.
  ################################################################################
  #
  #  Suggested additional basis functions. For production calculations,
  #  uncomment them one after another (the most important basis functions are
  #  listed first).
  #
  #  Constructed for dimers: 1.9, 2.25, 3.00, 4.00 Ang
  #
  ################################################################################
  #  "First tier" - improvements: -605.96 meV to -18.06 meV
       hydro 4 f 7.2
       ionic 4 d auto
       ionic 5 p auto
       hydro 5 g 10.4
       ionic 5 s auto
  #  "Second tier" - improvements: -32.47 meV to -1.41 meV
  #     hydro 4 f 10.4
  #     hydro 6 h 14.8
  #     hydro 4 d 6.2
  #     hydro 4 p 4.4
  #     hydro 4 f 20
  #     hydro 5 s 6
  #  "Third tier" - improvements: -1.99 meV and lower.
  #     hydro 4 f 5.8
  #     hydro 5 g 10.8
  #     hydro 2 p 1
  #     hydro 3 d 8
  #     hydro 6 h 14.4
  #     hydro 1 s 0.9
  #  Further functions (approx -0.40 meV and below possible)
  ################################################################################
  #
  #  FHI-aims code project
  #  Volker Blum, Fritz Haber Institute Berlin, 2009
  #
  #  Suggested "tight" defaults for S atom (to be pasted into control.in file)
  #
  #  Revised Jan 04, 2011, following tests (SiC) done by Lydia Nemec:
  #     d and g functions of tier 2 now enabled by default.
  #
  ################################################################################
    species        S
  #     global species definitions
      nucleus             16
      mass                32.065
  #
      l_hartree           6
  #
      cut_pot             4.0          2.0  1.0
      basis_dep_cutoff    1e-4
  #
      radial_base         44 7.0
      radial_multiplier   2
      angular_grids       specified
        division   0.4665  110
        division   0.5810  194
        division   0.7139  302
        division   0.8274  434
  #      division   0.9105  590
  #      division   1.0975  770
  #      division   1.2028  974
  #      outer_grid  974
        outer_grid  434
  ################################################################################
  #
  #  Definition of "minimal" basis
  #
  ################################################################################
  #     valence basis states
      valence      3  s   2.
      valence      3  p   4.
  #     ion occupancy
      ion_occ      3  s   1.
      ion_occ      3  p   3.
  ################################################################################
  #
  #  Suggested additional basis functions. For production calculations,
  #  uncomment them one after another (the most important basis functions are
  #  listed first).
  #
  #  Constructed for dimers: 1.6 A, 1.9 A, 2.5 A, 3.25 A, 4.0 A
  #
  ################################################################################
  #  "First tier" - improvements: -652.81 meV to -45.53 meV
       ionic 3 d auto
       hydro 2 p 1.8
       hydro 4 f 7
       ionic 3 s auto
  #  "Second tier" - improvements: -30.20 meV to -1.74 meV
       hydro 4 d 6.2
       hydro 5 g 10.8
  #     hydro 4 p 4.9
  #     hydro 5 f 10
  #     hydro 1 s 0.8
  #  "Third tier" - improvements: -1.04 meV to -0.20 meV
  #     hydro 3 d 3.9
  #     hydro 3 d 2.7
  #     hydro 5 g 12
  #     hydro 4 p 10.4
  #     hydro 5 f 12.4
  #     hydro 2 s 1.9
  #  "Fourth tier" - improvements: -0.35 meV to -0.06 meV
  #     hydro 4 d 10.4
  #     hydro 4 p 7.2
  #     hydro 4 d 10
  #     hydro 5 g 19.2
  #     hydro 4 s 12
  
  ################################################################################
  #
  # For methods that use the localized form of the "resolution of identity" for
  # the two-electron Coulomb operator (RI_method LVL), particularly Hartree-Fock and
  # hybrid density functional calculations, the highest accuracy can be obtained by
  # uncommenting the line beginning with "for_aux"  below, thus adding an extra g radial
  # function to the construction of the product basis set for the expansion.
  # See Ref. New J. Phys. 17, 093020 (2015) for more information, particularly Figs. 1 and 6.
  #
  ################################################################################
  #
  # for_aux hydro 5 g 6.0
  
  -----------------------------------------------------------------------
  Completed first pass over input file control.in .
  -----------------------------------------------------------------------
  
  
  -----------------------------------------------------------------------
  Parsing geometry.in (first pass over file, find array dimensions only).
  The contents of geometry.in will be repeated verbatim below
  unless switched off by setting 'verbatim_writeout .false.' .
  in the first line of geometry.in .
  -----------------------------------------------------------------------
  
  #
  # This is the geometry file that corresponds to the current relaxation step.
  # If you do not want this file to be written, set the "write_restart_geometry" flag to .false.
  #  aims_uuid : D65A8BC0-8F1C-404C-A9D5-3E0A7708DED1
  #
  lattice_vector      4.54192037     -2.34406638      0.00000000
  lattice_vector      4.54192037      2.34406638      0.00000000
  lattice_vector      4.17704419      0.00000000      7.93345147
  atom_frac       0.13942170     -0.13942170      0.25000000 Ba
  atom_frac      -0.13942170      0.13942170      0.75000000 Ba
  atom_frac       0.48385499      0.19845064     -0.47839934 S
  atom_frac      -0.19845064     -0.48385499      0.97839934 S
  atom_frac      -0.48385499     -0.19845064      0.47839934 S
  atom_frac       0.19845064      0.48385499      0.02160066 S
  #
  # What follows is the current estimated Hessian matrix constructed by the BFGS algorithm.
  # This is NOT the true Hessian matrix of the system.
  # If you do not want this information here, switch it off using the "hessian_to_restart_geometry" keyword.
  #
  trust_radius             0.0332093283
  hessian_block                1       1           4.857474          -4.642229          -1.323346          -4.642229         225.63651
  hessian_block                1       2          -0.850625         128.565599          30.413190           0.000000           0.00000
  hessian_block                2       2         107.422161           0.000000           0.000000           0.000000           0.00000
  hessian_block_lv             1       1           1.848857           0.283582          -0.091399           0.283582           4.20280
  hessian_block_lv             1       2           0.364180           0.837174          -0.069948           0.000000           0.00000
  hessian_block_lv             2       2           1.134246           0.000000           0.000000           0.000000           0.00000
  hessian_block_lv_atom        1       1          -0.334376          -0.149221           0.672767          12.261625           6.33889
  hessian_block_lv_atom        1       2           6.002474           6.756981           0.666299           0.000000           0.00000
  hessian_block_lv_atom        2       1          -0.093856           0.000000           0.000000          -1.100232           0.00000
  hessian_block_lv_atom        2       2           0.558475           0.000000           0.000000           0.000000           0.00000
  
  -----------------------------------------------------------------------
  Completed first pass over input file geometry.in .
  -----------------------------------------------------------------------
  

  Basic array size parameters:
  | Number of species                 :        3
  | Number of atoms                   :        6
  | Number of lattice vectors         :        3
  | Max. basis fn. angular momentum   :        4
  | Max. atomic/ionic basis occupied n:        6
  | Max. number of basis fn. types    :        3
  | Max. radial fns per species/type  :       12
  | Max. logarithmic grid size        :     1460
  | Max. radial integration grid size :      131
  | Max. angular integration grid size:      434
  | Max. angular grid division number :        8
  | Radial grid for Hartree potential :     1460
  | Number of spin channels           :        1

------------------------------------------------------------
          Reading file control.in.
------------------------------------------------------------

  XC: Using HSE-functional with OMEGA =  0.110000E+00 <units>.
  XC: For the actual units (bohr^-1 or Angstrom^-1), see below.
  hse_unit: Unit for the HSE06 hybrid functional screening parameter set to bohr^(-1).
  Charge =   0.000000E+00: Neutral system requested explicitly.
  Spin treatment: No spin polarisation.
  Scalar relativistic treatment of kinetic energy: on-site free-atom approximation to ZORA.
  Found k-point grid:         8         8         4
  Convergence accuracy of self-consistent charge density:  0.1000E-06
  Calculating non-self-consistent second-variational spin-orbit coupling after scf-cycle

  Plot band    1
  | begin  0.000000  0.000000  0.000000
  | end    0.500000  0.500000  1.000000
  | number of points:   41

  Plot band    2
  | begin  0.500000  0.500000  1.000000
  | end    0.485780  0.485780  1.027090
  | number of points:    2

  Plot band    3
  | begin  0.485780  0.485780  1.027090
  | end    0.500000  0.500000  0.500000
  | number of points:   22

  Plot band    4
  | begin  0.500000  0.500000  0.500000
  | end    0.294900  0.705100  0.500000
  | number of points:   28

  Plot band    5
  | begin -0.294900  0.294900 -0.500000
  | end    0.000000  0.000000 -0.500000
  | number of points:   40

  Plot band    6
  | begin  0.000000  0.000000 -0.500000
  | end    0.514220  0.514220 -0.027090
  | number of points:   36

  Plot band    7
  | begin  0.500000  0.500000  1.000000
  | end    0.342060  0.657940  1.000000
  | number of points:   22

  Plot band    8
  | begin -0.342060  0.342060  0.000000
  | end    0.000000  0.000000  0.000000
  | number of points:   47

  Plot band    9
  | begin  0.000000  0.000000  0.000000
  | end    0.000000  0.500000  0.500000
  | number of points:   40

  Plot band   10
  | begin  0.000000  0.500000  0.000000
  | end    0.000000  0.000000  0.000000
  | number of points:   40
  Calculating density of states with
  | energy interval :-10.000000 10.000000
  | points & broadening :    51  0.100000

  Reading configuration options for species Ba                  .
  | Found nuclear charge :  56.0000
  | Found atomic mass :    137.32700000000000      amu
  | Found l_max for Hartree potential  :   6
  | Found cutoff potl. onset [A], width [A], scale factor :    6.00000    2.00000    1.00000
  | Threshold for basis-dependent cutoff potential is   0.100000E-03
  | Found data for basic radial integration grid :    65 points, outermost radius =    7.000 A
  | Found multiplier for basic radial grid :   2
  | Found angular grid specification: user-specified.
  | Specified grid contains     5 separate shells.
  | Check grid settings after all constraints further below.
  | Found free-atom valence shell :  6 s   2.000
  | Found free-atom valence shell :  5 p   6.000
  | Found free-atom valence shell :  4 d  10.000
  | Found free-ion valence shell :  6 s   1.000
  | Found free-ion valence shell :  5 p   6.000
  | Found free-ion valence shell :  4 d  10.000
  | Found ionic basis function :  5 d , default cutoff radius.
  | Found ionic basis function :  4 f , default cutoff radius.
  | Found hydrogenic basis function :  3 p   2.700
  | Found hydrogenic basis function :  4 s   3.300
  | Found hydrogenic basis function :  4 f   5.800
  | Found hydrogenic basis function :  5 g   7.400
  Species Ba                  : Missing cutoff potential type.
  Defaulting to exp(1/x)/(1-x)^2 type cutoff potential.
  Species Ba: No 'logarithmic' tag. Using default grid for free atom:
  | Default logarithmic grid data [bohr] : 0.1000E-03 0.1000E+03 0.1012E+01
  | Will include ionic basis functions of  1.0-fold positive Ba                   ion.
  Species Ba: On-site basis accuracy parameter (for Gram-Schmidt orthonormalisation) not specified.
  Using default value basis_acc =  0.1000000E-03.
  Species Ba                  : Using default innermost maximum threshold i_radial=  2 for radial functions.
  Species Ba                  : Default cutoff onset for free atom density etc. : 0.60000000E+01 AA.
  Species Ba                  : Basic radial grid will be enhanced according to radial_multiplier =   2, to contain   131 grid points.

  Reading configuration options for species Zr                  .
  | Found nuclear charge :  40.0000
  | Found atomic mass :    91.224000000000004      amu
  | Found l_max for Hartree potential  :   6
  | Found cutoff potl. onset [A], width [A], scale factor :    4.00000    2.00000    1.00000
  | Threshold for basis-dependent cutoff potential is   0.100000E-03
  | Found data for basic radial integration grid :    58 points, outermost radius =    7.000 A
  | Found multiplier for basic radial grid :   2
  | Found angular grid specification: user-specified.
  | Specified grid contains     6 separate shells.
  | Check grid settings after all constraints further below.
  | Found free-atom valence shell :  5 s   2.000
  | Found free-atom valence shell :  4 p   6.000
  | Found free-atom valence shell :  4 d   2.000
  | Found free-ion valence shell :  5 s   1.000
  | Found free-ion valence shell :  4 p   6.000
  | Found free-ion valence shell :  4 d   1.000
  | Found hydrogenic basis function :  4 f   7.200
  | Found ionic basis function :  4 d , default cutoff radius.
  | Found ionic basis function :  5 p , default cutoff radius.
  | Found hydrogenic basis function :  5 g  10.400
  | Found ionic basis function :  5 s , default cutoff radius.
  Species Zr                  : Missing cutoff potential type.
  Defaulting to exp(1/x)/(1-x)^2 type cutoff potential.
  Species Zr: No 'logarithmic' tag. Using default grid for free atom:
  | Default logarithmic grid data [bohr] : 0.1000E-03 0.1000E+03 0.1012E+01
  | Will include ionic basis functions of  2.0-fold positive Zr                   ion.
  Species Zr: On-site basis accuracy parameter (for Gram-Schmidt orthonormalisation) not specified.
  Using default value basis_acc =  0.1000000E-03.
  Species Zr                  : Using default innermost maximum threshold i_radial=  2 for radial functions.
  Species Zr                  : Default cutoff onset for free atom density etc. : 0.40000000E+01 AA.
  Species Zr                  : Basic radial grid will be enhanced according to radial_multiplier =   2, to contain   117 grid points.

  Reading configuration options for species S                   .
  | Found nuclear charge :  16.0000
  | Found atomic mass :    32.064999999999998      amu
  | Found l_max for Hartree potential  :   6
  | Found cutoff potl. onset [A], width [A], scale factor :    4.00000    2.00000    1.00000
  | Threshold for basis-dependent cutoff potential is   0.100000E-03
  | Found data for basic radial integration grid :    44 points, outermost radius =    7.000 A
  | Found multiplier for basic radial grid :   2
  | Found angular grid specification: user-specified.
  | Specified grid contains     5 separate shells.
  | Check grid settings after all constraints further below.
  | Found free-atom valence shell :  3 s   2.000
  | Found free-atom valence shell :  3 p   4.000
  | Found free-ion valence shell :  3 s   1.000
  | Found free-ion valence shell :  3 p   3.000
  | Found ionic basis function :  3 d , default cutoff radius.
  | Found hydrogenic basis function :  2 p   1.800
  | Found hydrogenic basis function :  4 f   7.000
  | Found ionic basis function :  3 s , default cutoff radius.
  | Found hydrogenic basis function :  4 d   6.200
  | Found hydrogenic basis function :  5 g  10.800
  Species S                   : Missing cutoff potential type.
  Defaulting to exp(1/x)/(1-x)^2 type cutoff potential.
  Species S : No 'logarithmic' tag. Using default grid for free atom:
  | Default logarithmic grid data [bohr] : 0.1000E-03 0.1000E+03 0.1012E+01
  | Will include ionic basis functions of  2.0-fold positive S                    ion.
  Species S : On-site basis accuracy parameter (for Gram-Schmidt orthonormalisation) not specified.
  Using default value basis_acc =  0.1000000E-03.
  Species S                   : Using default innermost maximum threshold i_radial=  2 for radial functions.
  Species S                   : Default cutoff onset for free atom density etc. : 0.40000000E+01 AA.
  Species S                   : Basic radial grid will be enhanced according to radial_multiplier =   2, to contain    89 grid points.

  Finished reading input file 'control.in'.

------------------------------------------------------------


------------------------------------------------------------
          Reading geometry description geometry.in.
------------------------------------------------------------
  | The smallest distance between any two atoms is         2.12186296 AA.
  | The first atom of this pair is atom number                      3 .
  | The second atom of this pair is atom number                     5 .
  | Wigner-Seitz cell of the first atom image          -1     0     1 .
  | (The Wigner-Seitz cell of the second atom is 0 0 0  by definition.)

  Symmetry information by spglib:
  | Precision set to  0.1E-04
  | Number of Operations  : 4
  | Space group           : 15
  | International         : C2/c
  | Schoenflies           : C2h^6
  Input structure read successfully.
  The structure contains        6 atoms,  and a total of        176.000 electrons.

  Input geometry:
  | Unit cell:
  |        4.54192037       -2.34406638        0.00000000
  |        4.54192037        2.34406638        0.00000000
  |        4.17704419        0.00000000        7.93345147
  | Atomic structure:
  |       Atom                x [A]            y [A]            z [A]
  |    1: Species Ba            1.04426105       -0.65362744        1.98336287
  |    2: Species Ba            3.13278314        0.65362744        5.95008860
  |    3: Species S             1.10068266       -0.66900674       -3.79535795
  |    4: Species S             0.98783944       -0.66900674        7.76208368
  |    5: Species S            -1.10068266        0.66900674        3.79535795
  |    6: Species S             3.18920475        0.66900674        0.17136779

  Lattice parameters for 3D lattice (in Angstroms) :     5.111134    5.111134    8.965899
  Angle(s) between unit vectors (in degrees)       :    65.543814   65.543814   54.596144


  Quantities derived from the lattice vectors (in Angstrom^-1):
  | Reciprocal lattice vector 1:  0.691688 -1.340232 -0.364181
  | Reciprocal lattice vector 2:  0.691688  1.340232 -0.364181
  | Reciprocal lattice vector 3:  0.000000 -0.000000  0.791986
  | Unit cell volume                               :   0.168928E+03  Angstrom^3

  Fractional coordinates:
                         L1                L2                L3
       atom_frac         0.13942170       -0.13942170        0.25000000  Ba
       atom_frac        -0.13942170        0.13942170        0.75000000  Ba
       atom_frac         0.48385499        0.19845064       -0.47839934  S
       atom_frac        -0.19845064       -0.48385499        0.97839934  S
       atom_frac        -0.48385499       -0.19845064        0.47839934  S
       atom_frac         0.19845064        0.48385499        0.02160066  S


  Finished reading input file 'control.in'.


------------------------------------------------------------
          Reading geometry description geometry.in.
------------------------------------------------------------

  Consistency checks for stacksize environment parameter are next.

  | Maximum stacksize for task 0: unlimited
  | Maximum stacksize for task 1: unlimited
  | Maximum stacksize for task 2: unlimited
  | Maximum stacksize for task 3: unlimited
  | Maximum stacksize for task 4: unlimited
  | Maximum stacksize for task 5: unlimited
  | Maximum stacksize for task 6: unlimited
  | Maximum stacksize for task 7: unlimited
  | Maximum stacksize for task 8: unlimited
  | Maximum stacksize for task 9: unlimited
  | Maximum stacksize for task 10: unlimited
  | Maximum stacksize for task 11: unlimited
  | Maximum stacksize for task 12: unlimited
  | Maximum stacksize for task 13: unlimited
  | Maximum stacksize for task 14: unlimited
  | Maximum stacksize for task 15: unlimited
  | Maximum stacksize for task 16: unlimited
  | Maximum stacksize for task 17: unlimited
  | Maximum stacksize for task 18: unlimited
  | Maximum stacksize for task 19: unlimited
  | Maximum stacksize for task 20: unlimited
  | Maximum stacksize for task 21: unlimited
  | Maximum stacksize for task 22: unlimited
  | Maximum stacksize for task 23: unlimited
  | Maximum stacksize for task 24: unlimited
  | Maximum stacksize for task 25: unlimited
  | Maximum stacksize for task 26: unlimited
  | Maximum stacksize for task 27: unlimited
  | Maximum stacksize for task 28: unlimited
  | Maximum stacksize for task 29: unlimited
  | Maximum stacksize for task 30: unlimited
  | Maximum stacksize for task 31: unlimited
  | Maximum stacksize for task 32: unlimited
  | Maximum stacksize for task 33: unlimited
  | Maximum stacksize for task 34: unlimited
  | Maximum stacksize for task 35: unlimited
  | Maximum stacksize for task 36: unlimited
  | Maximum stacksize for task 37: unlimited
  | Maximum stacksize for task 38: unlimited
  | Maximum stacksize for task 39: unlimited
  | Maximum stacksize for task 40: unlimited
  | Maximum stacksize for task 41: unlimited
  | Maximum stacksize for task 42: unlimited
  | Maximum stacksize for task 43: unlimited
  | Maximum stacksize for task 44: unlimited
  | Maximum stacksize for task 45: unlimited
  | Maximum stacksize for task 46: unlimited
  | Maximum stacksize for task 47: unlimited
  | Maximum stacksize for task 48: unlimited
  | Maximum stacksize for task 49: unlimited
  | Maximum stacksize for task 50: unlimited
  | Maximum stacksize for task 51: unlimited
  | Maximum stacksize for task 52: unlimited
  | Maximum stacksize for task 53: unlimited
  | Maximum stacksize for task 54: unlimited
  | Maximum stacksize for task 55: unlimited
  | Maximum stacksize for task 56: unlimited
  | Maximum stacksize for task 57: unlimited
  | Maximum stacksize for task 58: unlimited
  | Maximum stacksize for task 59: unlimited
  | Maximum stacksize for task 60: unlimited
  | Maximum stacksize for task 61: unlimited
  | Maximum stacksize for task 62: unlimited
  | Maximum stacksize for task 63: unlimited
  | Maximum stacksize for task 64: unlimited
  | Maximum stacksize for task 65: unlimited
  | Maximum stacksize for task 66: unlimited
  | Maximum stacksize for task 67: unlimited
  | Maximum stacksize for task 68: unlimited
  | Maximum stacksize for task 69: unlimited
  | Maximum stacksize for task 70: unlimited
  | Maximum stacksize for task 71: unlimited
  | Maximum stacksize for task 72: unlimited
  | Maximum stacksize for task 73: unlimited
  | Maximum stacksize for task 74: unlimited
  | Maximum stacksize for task 75: unlimited
  | Maximum stacksize for task 76: unlimited
  | Maximum stacksize for task 77: unlimited
  | Maximum stacksize for task 78: unlimited
  | Maximum stacksize for task 79: unlimited
  | Maximum stacksize for task 80: unlimited
  | Maximum stacksize for task 81: unlimited
  | Maximum stacksize for task 82: unlimited
  | Maximum stacksize for task 83: unlimited
  | Maximum stacksize for task 84: unlimited
  | Maximum stacksize for task 85: unlimited
  | Maximum stacksize for task 86: unlimited
  | Maximum stacksize for task 87: unlimited
  | Maximum stacksize for task 88: unlimited
  | Maximum stacksize for task 89: unlimited
  | Maximum stacksize for task 90: unlimited
  | Maximum stacksize for task 91: unlimited
  | Maximum stacksize for task 92: unlimited
  | Maximum stacksize for task 93: unlimited
  | Maximum stacksize for task 94: unlimited
  | Maximum stacksize for task 95: unlimited
  | Maximum stacksize for task 96: unlimited
  | Maximum stacksize for task 97: unlimited
  | Maximum stacksize for task 98: unlimited
  | Maximum stacksize for task 99: unlimited
  | Maximum stacksize for task 100: unlimited
  | Maximum stacksize for task 101: unlimited
  | Maximum stacksize for task 102: unlimited
  | Maximum stacksize for task 103: unlimited
  | Maximum stacksize for task 104: unlimited
  | Maximum stacksize for task 105: unlimited
  | Maximum stacksize for task 106: unlimited
  | Maximum stacksize for task 107: unlimited
  | Maximum stacksize for task 108: unlimited
  | Maximum stacksize for task 109: unlimited
  | Maximum stacksize for task 110: unlimited
  | Maximum stacksize for task 111: unlimited
  | Maximum stacksize for task 112: unlimited
  | Maximum stacksize for task 113: unlimited
  | Maximum stacksize for task 114: unlimited
  | Maximum stacksize for task 115: unlimited
  | Maximum stacksize for task 116: unlimited
  | Maximum stacksize for task 117: unlimited
  | Maximum stacksize for task 118: unlimited
  | Maximum stacksize for task 119: unlimited
  | Maximum stacksize for task 120: unlimited
  | Maximum stacksize for task 121: unlimited
  | Maximum stacksize for task 122: unlimited
  | Maximum stacksize for task 123: unlimited
  | Maximum stacksize for task 124: unlimited
  | Maximum stacksize for task 125: unlimited
  | Maximum stacksize for task 126: unlimited
  | Maximum stacksize for task 127: unlimited
  | Maximum stacksize for task 128: unlimited
  | Maximum stacksize for task 129: unlimited
  | Maximum stacksize for task 130: unlimited
  | Maximum stacksize for task 131: unlimited
  | Maximum stacksize for task 132: unlimited
  | Maximum stacksize for task 133: unlimited
  | Maximum stacksize for task 134: unlimited
  | Maximum stacksize for task 135: unlimited
  | Maximum stacksize for task 136: unlimited
  | Maximum stacksize for task 137: unlimited
  | Maximum stacksize for task 138: unlimited
  | Maximum stacksize for task 139: unlimited
  | Maximum stacksize for task 140: unlimited
  | Maximum stacksize for task 141: unlimited
  | Maximum stacksize for task 142: unlimited
  | Maximum stacksize for task 143: unlimited
  | Maximum stacksize for task 144: unlimited
  | Maximum stacksize for task 145: unlimited
  | Maximum stacksize for task 146: unlimited
  | Maximum stacksize for task 147: unlimited
  | Maximum stacksize for task 148: unlimited
  | Maximum stacksize for task 149: unlimited
  | Maximum stacksize for task 150: unlimited
  | Maximum stacksize for task 151: unlimited
  | Maximum stacksize for task 152: unlimited
  | Maximum stacksize for task 153: unlimited
  | Maximum stacksize for task 154: unlimited
  | Maximum stacksize for task 155: unlimited
  | Maximum stacksize for task 156: unlimited
  | Maximum stacksize for task 157: unlimited
  | Maximum stacksize for task 158: unlimited
  | Maximum stacksize for task 159: unlimited
  | Maximum stacksize for task 160: unlimited
  | Maximum stacksize for task 161: unlimited
  | Maximum stacksize for task 162: unlimited
  | Maximum stacksize for task 163: unlimited
  | Maximum stacksize for task 164: unlimited
  | Maximum stacksize for task 165: unlimited
  | Maximum stacksize for task 166: unlimited
  | Maximum stacksize for task 167: unlimited
  | Maximum stacksize for task 168: unlimited
  | Maximum stacksize for task 169: unlimited
  | Maximum stacksize for task 170: unlimited
  | Maximum stacksize for task 171: unlimited
  | Maximum stacksize for task 172: unlimited
  | Maximum stacksize for task 173: unlimited
  | Maximum stacksize for task 174: unlimited
  | Maximum stacksize for task 175: unlimited
  | Maximum stacksize for task 176: unlimited
  | Maximum stacksize for task 177: unlimited
  | Maximum stacksize for task 178: unlimited
  | Maximum stacksize for task 179: unlimited
  | Maximum stacksize for task 180: unlimited
  | Maximum stacksize for task 181: unlimited
  | Maximum stacksize for task 182: unlimited
  | Maximum stacksize for task 183: unlimited
  | Maximum stacksize for task 184: unlimited
  | Maximum stacksize for task 185: unlimited
  | Maximum stacksize for task 186: unlimited
  | Maximum stacksize for task 187: unlimited
  | Maximum stacksize for task 188: unlimited
  | Maximum stacksize for task 189: unlimited
  | Maximum stacksize for task 190: unlimited
  | Maximum stacksize for task 191: unlimited
  | Maximum stacksize for task 192: unlimited
  | Maximum stacksize for task 193: unlimited
  | Maximum stacksize for task 194: unlimited
  | Maximum stacksize for task 195: unlimited
  | Maximum stacksize for task 196: unlimited
  | Maximum stacksize for task 197: unlimited
  | Maximum stacksize for task 198: unlimited
  | Maximum stacksize for task 199: unlimited
  | Maximum stacksize for task 200: unlimited
  | Maximum stacksize for task 201: unlimited
  | Maximum stacksize for task 202: unlimited
  | Maximum stacksize for task 203: unlimited
  | Maximum stacksize for task 204: unlimited
  | Maximum stacksize for task 205: unlimited
  | Maximum stacksize for task 206: unlimited
  | Maximum stacksize for task 207: unlimited
  | Maximum stacksize for task 208: unlimited
  | Maximum stacksize for task 209: unlimited
  | Maximum stacksize for task 210: unlimited
  | Maximum stacksize for task 211: unlimited
  | Maximum stacksize for task 212: unlimited
  | Maximum stacksize for task 213: unlimited
  | Maximum stacksize for task 214: unlimited
  | Maximum stacksize for task 215: unlimited
  | Maximum stacksize for task 216: unlimited
  | Maximum stacksize for task 217: unlimited
  | Maximum stacksize for task 218: unlimited
  | Maximum stacksize for task 219: unlimited
  | Maximum stacksize for task 220: unlimited
  | Maximum stacksize for task 221: unlimited
  | Maximum stacksize for task 222: unlimited
  | Maximum stacksize for task 223: unlimited
  | Maximum stacksize for task 224: unlimited
  | Maximum stacksize for task 225: unlimited
  | Maximum stacksize for task 226: unlimited
  | Maximum stacksize for task 227: unlimited
  | Maximum stacksize for task 228: unlimited
  | Maximum stacksize for task 229: unlimited
  | Maximum stacksize for task 230: unlimited
  | Maximum stacksize for task 231: unlimited
  | Maximum stacksize for task 232: unlimited
  | Maximum stacksize for task 233: unlimited
  | Maximum stacksize for task 234: unlimited
  | Maximum stacksize for task 235: unlimited
  | Maximum stacksize for task 236: unlimited
  | Maximum stacksize for task 237: unlimited
  | Maximum stacksize for task 238: unlimited
  | Maximum stacksize for task 239: unlimited
  | Maximum stacksize for task 240: unlimited
  | Maximum stacksize for task 241: unlimited
  | Maximum stacksize for task 242: unlimited
  | Maximum stacksize for task 243: unlimited
  | Maximum stacksize for task 244: unlimited
  | Maximum stacksize for task 245: unlimited
  | Maximum stacksize for task 246: unlimited
  | Maximum stacksize for task 247: unlimited
  | Maximum stacksize for task 248: unlimited
  | Maximum stacksize for task 249: unlimited
  | Maximum stacksize for task 250: unlimited
  | Maximum stacksize for task 251: unlimited
  | Maximum stacksize for task 252: unlimited
  | Maximum stacksize for task 253: unlimited
  | Maximum stacksize for task 254: unlimited
  | Maximum stacksize for task 255: unlimited
  | Current stacksize for task 0: unlimited
  | Current stacksize for task 1: unlimited
  | Current stacksize for task 2: unlimited
  | Current stacksize for task 3: unlimited
  | Current stacksize for task 4: unlimited
  | Current stacksize for task 5: unlimited
  | Current stacksize for task 6: unlimited
  | Current stacksize for task 7: unlimited
  | Current stacksize for task 8: unlimited
  | Current stacksize for task 9: unlimited
  | Current stacksize for task 10: unlimited
  | Current stacksize for task 11: unlimited
  | Current stacksize for task 12: unlimited
  | Current stacksize for task 13: unlimited
  | Current stacksize for task 14: unlimited
  | Current stacksize for task 15: unlimited
  | Current stacksize for task 16: unlimited
  | Current stacksize for task 17: unlimited
  | Current stacksize for task 18: unlimited
  | Current stacksize for task 19: unlimited
  | Current stacksize for task 20: unlimited
  | Current stacksize for task 21: unlimited
  | Current stacksize for task 22: unlimited
  | Current stacksize for task 23: unlimited
  | Current stacksize for task 24: unlimited
  | Current stacksize for task 25: unlimited
  | Current stacksize for task 26: unlimited
  | Current stacksize for task 27: unlimited
  | Current stacksize for task 28: unlimited
  | Current stacksize for task 29: unlimited
  | Current stacksize for task 30: unlimited
  | Current stacksize for task 31: unlimited
  | Current stacksize for task 32: unlimited
  | Current stacksize for task 33: unlimited
  | Current stacksize for task 34: unlimited
  | Current stacksize for task 35: unlimited
  | Current stacksize for task 36: unlimited
  | Current stacksize for task 37: unlimited
  | Current stacksize for task 38: unlimited
  | Current stacksize for task 39: unlimited
  | Current stacksize for task 40: unlimited
  | Current stacksize for task 41: unlimited
  | Current stacksize for task 42: unlimited
  | Current stacksize for task 43: unlimited
  | Current stacksize for task 44: unlimited
  | Current stacksize for task 45: unlimited
  | Current stacksize for task 46: unlimited
  | Current stacksize for task 47: unlimited
  | Current stacksize for task 48: unlimited
  | Current stacksize for task 49: unlimited
  | Current stacksize for task 50: unlimited
  | Current stacksize for task 51: unlimited
  | Current stacksize for task 52: unlimited
  | Current stacksize for task 53: unlimited
  | Current stacksize for task 54: unlimited
  | Current stacksize for task 55: unlimited
  | Current stacksize for task 56: unlimited
  | Current stacksize for task 57: unlimited
  | Current stacksize for task 58: unlimited
  | Current stacksize for task 59: unlimited
  | Current stacksize for task 60: unlimited
  | Current stacksize for task 61: unlimited
  | Current stacksize for task 62: unlimited
  | Current stacksize for task 63: unlimited
  | Current stacksize for task 64: unlimited
  | Current stacksize for task 65: unlimited
  | Current stacksize for task 66: unlimited
  | Current stacksize for task 67: unlimited
  | Current stacksize for task 68: unlimited
  | Current stacksize for task 69: unlimited
  | Current stacksize for task 70: unlimited
  | Current stacksize for task 71: unlimited
  | Current stacksize for task 72: unlimited
  | Current stacksize for task 73: unlimited
  | Current stacksize for task 74: unlimited
  | Current stacksize for task 75: unlimited
  | Current stacksize for task 76: unlimited
  | Current stacksize for task 77: unlimited
  | Current stacksize for task 78: unlimited
  | Current stacksize for task 79: unlimited
  | Current stacksize for task 80: unlimited
  | Current stacksize for task 81: unlimited
  | Current stacksize for task 82: unlimited
  | Current stacksize for task 83: unlimited
  | Current stacksize for task 84: unlimited
  | Current stacksize for task 85: unlimited
  | Current stacksize for task 86: unlimited
  | Current stacksize for task 87: unlimited
  | Current stacksize for task 88: unlimited
  | Current stacksize for task 89: unlimited
  | Current stacksize for task 90: unlimited
  | Current stacksize for task 91: unlimited
  | Current stacksize for task 92: unlimited
  | Current stacksize for task 93: unlimited
  | Current stacksize for task 94: unlimited
  | Current stacksize for task 95: unlimited
  | Current stacksize for task 96: unlimited
  | Current stacksize for task 97: unlimited
  | Current stacksize for task 98: unlimited
  | Current stacksize for task 99: unlimited
  | Current stacksize for task 100: unlimited
  | Current stacksize for task 101: unlimited
  | Current stacksize for task 102: unlimited
  | Current stacksize for task 103: unlimited
  | Current stacksize for task 104: unlimited
  | Current stacksize for task 105: unlimited
  | Current stacksize for task 106: unlimited
  | Current stacksize for task 107: unlimited
  | Current stacksize for task 108: unlimited
  | Current stacksize for task 109: unlimited
  | Current stacksize for task 110: unlimited
  | Current stacksize for task 111: unlimited
  | Current stacksize for task 112: unlimited
  | Current stacksize for task 113: unlimited
  | Current stacksize for task 114: unlimited
  | Current stacksize for task 115: unlimited
  | Current stacksize for task 116: unlimited
  | Current stacksize for task 117: unlimited
  | Current stacksize for task 118: unlimited
  | Current stacksize for task 119: unlimited
  | Current stacksize for task 120: unlimited
  | Current stacksize for task 121: unlimited
  | Current stacksize for task 122: unlimited
  | Current stacksize for task 123: unlimited
  | Current stacksize for task 124: unlimited
  | Current stacksize for task 125: unlimited
  | Current stacksize for task 126: unlimited
  | Current stacksize for task 127: unlimited
  | Current stacksize for task 128: unlimited
  | Current stacksize for task 129: unlimited
  | Current stacksize for task 130: unlimited
  | Current stacksize for task 131: unlimited
  | Current stacksize for task 132: unlimited
  | Current stacksize for task 133: unlimited
  | Current stacksize for task 134: unlimited
  | Current stacksize for task 135: unlimited
  | Current stacksize for task 136: unlimited
  | Current stacksize for task 137: unlimited
  | Current stacksize for task 138: unlimited
  | Current stacksize for task 139: unlimited
  | Current stacksize for task 140: unlimited
  | Current stacksize for task 141: unlimited
  | Current stacksize for task 142: unlimited
  | Current stacksize for task 143: unlimited
  | Current stacksize for task 144: unlimited
  | Current stacksize for task 145: unlimited
  | Current stacksize for task 146: unlimited
  | Current stacksize for task 147: unlimited
  | Current stacksize for task 148: unlimited
  | Current stacksize for task 149: unlimited
  | Current stacksize for task 150: unlimited
  | Current stacksize for task 151: unlimited
  | Current stacksize for task 152: unlimited
  | Current stacksize for task 153: unlimited
  | Current stacksize for task 154: unlimited
  | Current stacksize for task 155: unlimited
  | Current stacksize for task 156: unlimited
  | Current stacksize for task 157: unlimited
  | Current stacksize for task 158: unlimited
  | Current stacksize for task 159: unlimited
  | Current stacksize for task 160: unlimited
  | Current stacksize for task 161: unlimited
  | Current stacksize for task 162: unlimited
  | Current stacksize for task 163: unlimited
  | Current stacksize for task 164: unlimited
  | Current stacksize for task 165: unlimited
  | Current stacksize for task 166: unlimited
  | Current stacksize for task 167: unlimited
  | Current stacksize for task 168: unlimited
  | Current stacksize for task 169: unlimited
  | Current stacksize for task 170: unlimited
  | Current stacksize for task 171: unlimited
  | Current stacksize for task 172: unlimited
  | Current stacksize for task 173: unlimited
  | Current stacksize for task 174: unlimited
  | Current stacksize for task 175: unlimited
  | Current stacksize for task 176: unlimited
  | Current stacksize for task 177: unlimited
  | Current stacksize for task 178: unlimited
  | Current stacksize for task 179: unlimited
  | Current stacksize for task 180: unlimited
  | Current stacksize for task 181: unlimited
  | Current stacksize for task 182: unlimited
  | Current stacksize for task 183: unlimited
  | Current stacksize for task 184: unlimited
  | Current stacksize for task 185: unlimited
  | Current stacksize for task 186: unlimited
  | Current stacksize for task 187: unlimited
  | Current stacksize for task 188: unlimited
  | Current stacksize for task 189: unlimited
  | Current stacksize for task 190: unlimited
  | Current stacksize for task 191: unlimited
  | Current stacksize for task 192: unlimited
  | Current stacksize for task 193: unlimited
  | Current stacksize for task 194: unlimited
  | Current stacksize for task 195: unlimited
  | Current stacksize for task 196: unlimited
  | Current stacksize for task 197: unlimited
  | Current stacksize for task 198: unlimited
  | Current stacksize for task 199: unlimited
  | Current stacksize for task 200: unlimited
  | Current stacksize for task 201: unlimited
  | Current stacksize for task 202: unlimited
  | Current stacksize for task 203: unlimited
  | Current stacksize for task 204: unlimited
  | Current stacksize for task 205: unlimited
  | Current stacksize for task 206: unlimited
  | Current stacksize for task 207: unlimited
  | Current stacksize for task 208: unlimited
  | Current stacksize for task 209: unlimited
  | Current stacksize for task 210: unlimited
  | Current stacksize for task 211: unlimited
  | Current stacksize for task 212: unlimited
  | Current stacksize for task 213: unlimited
  | Current stacksize for task 214: unlimited
  | Current stacksize for task 215: unlimited
  | Current stacksize for task 216: unlimited
  | Current stacksize for task 217: unlimited
  | Current stacksize for task 218: unlimited
  | Current stacksize for task 219: unlimited
  | Current stacksize for task 220: unlimited
  | Current stacksize for task 221: unlimited
  | Current stacksize for task 222: unlimited
  | Current stacksize for task 223: unlimited
  | Current stacksize for task 224: unlimited
  | Current stacksize for task 225: unlimited
  | Current stacksize for task 226: unlimited
  | Current stacksize for task 227: unlimited
  | Current stacksize for task 228: unlimited
  | Current stacksize for task 229: unlimited
  | Current stacksize for task 230: unlimited
  | Current stacksize for task 231: unlimited
  | Current stacksize for task 232: unlimited
  | Current stacksize for task 233: unlimited
  | Current stacksize for task 234: unlimited
  | Current stacksize for task 235: unlimited
  | Current stacksize for task 236: unlimited
  | Current stacksize for task 237: unlimited
  | Current stacksize for task 238: unlimited
  | Current stacksize for task 239: unlimited
  | Current stacksize for task 240: unlimited
  | Current stacksize for task 241: unlimited
  | Current stacksize for task 242: unlimited
  | Current stacksize for task 243: unlimited
  | Current stacksize for task 244: unlimited
  | Current stacksize for task 245: unlimited
  | Current stacksize for task 246: unlimited
  | Current stacksize for task 247: unlimited
  | Current stacksize for task 248: unlimited
  | Current stacksize for task 249: unlimited
  | Current stacksize for task 250: unlimited
  | Current stacksize for task 251: unlimited
  | Current stacksize for task 252: unlimited
  | Current stacksize for task 253: unlimited
  | Current stacksize for task 254: unlimited
  | Current stacksize for task 255: unlimited

  Consistency checks for the contents of control.in are next.

  HSE06 screening parameters: omega_HF  =      0.11000000 bohr^-1, and
                              omega_PBE =      0.11000000 bohr^-1.
  MPI_IN_PLACE appears to work with this MPI implementation.
  | Keeping use_mpi_in_place .true. (see manual).
  Explicit treatment of the Coulomb operator is needed, but the RI method is not specified.
  Coulomb operator: Defaulting to 'LVL fast' resolution of identity - RI_type = LVL_fast
  Species Ba: Using default value for prodbas_acc =   1.000000E-04.
  Species Ba: Using default value max_l_prodbas =    20.
  Species Zr: Using default value for prodbas_acc =   1.000000E-04.
  Species Zr: Using default value max_l_prodbas =    20.
  Species S: Using default value for prodbas_acc =   1.000000E-04.
  Species S: Using default value max_l_prodbas =    20.
  Target number of points in a grid batch is not set. Defaulting to  100
  Method for grid partitioning is not set. Defaulting to parallel hash+maxmin partitioning.
  Batch size limit is not set. Defaulting to    200
  By default, will store active basis functions for each batch.
  If in need of memory, prune_basis_once .false. can be used to disable this option.
  communication_type for Hartree potential was not specified.
  Defaulting to calc_hartree .
  Defaulting to Pulay charge density mixer.
  Pulay mixer: Number of relevant iterations not set.
  Defaulting to    8 iterations.
  Pulay mixer: Number of initial linear mixing iterations not set.
  Defaulting to    0 iterations.
  Work space size for distributed Hartree potential not set.
  Defaulting to   0.200000E+03 MB.
  Mixing parameter for charge density mixing has not been set.
  Using default: charge_mix_param =     0.0500.
  The mixing parameter will be adjusted in iteration number     2 of the first full s.c.f. cycle only.
  Algorithm-dependent basis array size parameters:
  | n_max_pulay                         :        8
  Maximum number of self-consistency iterations not provided.
  Presetting  1000 iterations.
  Presetting      1001 iterations before the initial mixing cycle
  is restarted anyway using the sc_init_iter criterion / keyword.
  Presetting a factor      1.000 between actual scf density residual
  and density convergence criterion sc_accuracy_rho below which sc_init_iter
  takes no effect.
  Calculation of forces was not defined in control.in. No forces will be calculated.
  Geometry relaxation not requested: no relaxation will be performed.
  No accuracy limit for integral partition fn. given. Defaulting to  0.1000E-14.
  No threshold value for u(r) in integrations given. Defaulting to  0.1000E-05.
  No occupation type (smearing scheme) given. Defaulting to Gaussian broadening, width =  0.1000E-01 eV.
  The width will be adjusted in iteration number     2 of the first full s.c.f. cycle only.
  S.C.F. convergence parameters will be adjusted in iteration number     2 of the first full s.c.f. cycle only.
  No accuracy for occupation numbers given. Defaulting to  0.1000E-12.
  No threshold value for occupation numbers given. Defaulting to  0.0000E+00.
  No accuracy for fermi level given. Defaulting to  0.1000E-19.
  Maximum # of iterations to find E_F not set. Defaulting to  200.
  Preferred method for the eigenvalue solver ('KS_method') not specified in 'control.in'.
  Defaulting to serial version, LAPACK (via ELSI), since more k-points than CPUs available.
  Will not use alltoall communication since running on < 1024 CPUs.
  Threshold for basis singularities not set.
  Default threshold for basis singularities:  0.1000E-04
  partition_type (choice of integration weights) for integrals was not specified.
  | Using a version of the partition function of Stratmann and coworkers ('stratmann_sparse').
  | At each grid point, the set of atoms used to build the partition table is smoothly restricted to
  | only those atoms whose free-atom density would be non-zero at that grid point.
  Partitioning for Hartree potential was not defined. Using partition_type for integrals.
  | Adjusted default value of keyword multip_moments_threshold to:       0.10000000E-11
  | This value may affect high angular momentum components of the Hartree potential in periodic systems.
  Threshold for auxiliary basis singularities not set.
  Default threshold for auxiliary basis singularities:  0.1000E-04
  No q(lm)/r^(l+1) cutoff set for long-range Hartree potential.
  | Using default value of  0.100000E-09 .
  | Verify using the multipole_threshold keyword.
  Defaulting to new monopole extrapolation.
  Density update method: automatic selection selected.
  Using density matrix based charge density update.
  Using density matrix based charge density update.
  Using packed matrix style: index .
 * NOTE: You are attempting to run a periodic structure with an exchange treatment
 * which requires a two-electron Coulomb operator (Hartree-Fock or a hybrid functional).
 * The present implementation is reliable to our knowledge, but some things
 * (like band structure output, or perhaps the auxilary basis set for small
 * orbital basis sets - see the "for_aux" keyword) require extra care.
 * Please let us know if you encounter any trouble.
  Coulomb operator: Defaulting to screening threshold for four-center integrals:   0.100000E-06
  Coulomb operator: Defaulting to screening threshold for Coulomb matrix:   0.100000E-09
  Fock matrix calculation: Setting the screening threshold for overlap matrix to coul_mat_threshold:   0.100000E-09
  Coulomb operator: Defaulting to 'LVL_fast' resolution of identity - RI_type = LVL_fast 
  No other resolution of identity version is supported for periodic boundary conditions at present.
  Coulomb operator: Defaulting to logarithmic spherical Bessel transform integrals (use_logsbt .true.).
  HSE with LVL_fast: Also defaulting to logarithmic spherical Bessel transform integrals.
  Defaulting to use full k-point grid (no symmetry reduction).
  Charge integration errors on the 3D integration grid will be compensated
  by explicit normalization and distribution of residual charges.
  Use the "compensate_multipole_errors" flag to change this behaviour.
  LVL not implemented with density matrix yet
  -> switching to transformed overlap
  LVL probably works better with logsbt
  Default to 1D ("use_logsbt") integrations for auxiliary 2-center integrals.
  Default onset of logarithmic r-grid for SBT is -38.000000000000
  Default onset of logarithmic k-grid for SBT is -25.000000000000
  Default range of logarithmic r- and k-grid for SBT is  45.000000000000
  Default number of logarithmic r- and k-grid for SBT is   4096
  * Use logSBT for radial HSE integration, too
 * NOTE: Band structure and exact exchange are requested at the same time,
 * and exx_band_structure_version is set to 1. 
 * exx_band_structure_version 1 is evaluated in a real-space formalism. It is fast
 * and the preferred version. HOWEVER, it does require a sufficiently
 * dense 'k_grid' to be used for the preceding s.c.f. cycle.
 * If the 'k_grid used for s.c.f. is NOT dense enough, the real-
 * space approach will produce bands that are OBVIOUSLY incorrect.
 * You cannot miss this - they won't look 'slightly' correct. In
 * that case, please try to increase the 'k_grid' parameters used
 * for the s.c.f. cycle. In particular, please avoid k_grid dimensions 
 * of '1' (one) in any dimension. We apologize for this inconvenience.
 * On the bright side, if you use exx_band_structure_version 1 
 * correctly, it will give reliable results without much overhead.
 * 
 * If your band structure does not look reasonable, increase the s.c.f. k-point
 * grid density. Again, it is especially recommended that you avoid dimensions of 1 when
 * specifying k_grid and using this option, even for large unit cells where a
 * gamma-point-only k-grid would be sufficient to converge the accuracy of the
 * calculation.
 * 
 * Please test (e.g., by comparing results from different k_grid settings) when in any doubt.
  Set 'collect_eigenvectors' to be '.true.' for all serial calculations. This is mandatory.
  Set 'collect_eigenvectors' to be '.true.' for KS_method lapack_fast and serial.

  Consistency checks for the contents of geometry.in are next.


  Range separation radius for Ewald summation (hartree_convergence_parameter):      4.39931198 bohr.
  Number of empty states per atom not set in control.in - providing a guess from actual geometry.
  | Total number of empty states used during s.c.f. cycle:       23
  If you use a very high smearing, use empty_states (per atom!) in control.in to increase this value.

  Structure-dependent array size parameters: 
  | Maximum number of distinct radial functions  :       44
  | Maximum number of basis functions            :      276
  | Number of Kohn-Sham states (occupied + empty):      111
------------------------------------------------------------
  Setting Coulomb cut-width to  1.091868692359 * rcut.
  Setting Coulomb cutting radius rcut to 17.931798614981 A.

------------------------------------------------------------
          Preparing all fixed parts of the calculation.
------------------------------------------------------------
  Determining machine precision:
     2.2250738585072014E-308
  Setting up grids for atomic and cluster calculations.

  Creating wave function, potential, and density for free atoms.
  Runtime choices for atomic solver:
  | atomic solver xc        : PBE
  | compute density gradient: 1
  | compute kinetic density : F

  Species: Ba

  List of occupied orbitals and eigenvalues:
    n    l              occ      energy [Ha]    energy [eV]
    1    0           2.0000     -1428.759176    -38878.5153
    2    0           2.0000      -218.156321     -5936.3355
    3    0           2.0000       -45.759571     -1245.1813
    4    0           2.0000        -8.961354      -243.8508
    5    0           2.0000        -1.235311       -33.6145
    6    0           2.0000        -0.117372        -3.1939
    2    1           6.0000      -195.503522     -5319.9215
    3    1           6.0000       -38.566500     -1049.4479
    4    1           6.0000        -6.648037      -180.9023
    5    1           6.0000        -0.686503       -18.6807
    3    2          10.0000       -28.146810      -765.9137
    4    2          10.0000        -3.294406       -89.6453


  Species: Zr

  List of occupied orbitals and eigenvalues:
    n    l              occ      energy [Ha]    energy [eV]
    1    0           2.0000      -668.722933    -18196.8768
    2    0           2.0000       -91.076987     -2478.3309
    3    0           2.0000       -14.873383      -404.7254
    4    0           2.0000        -1.994212       -54.2653
    5    0           2.0000        -0.156460        -4.2575
    2    1           6.0000       -81.194469     -2209.4139
    3    1           6.0000       -11.667913      -317.5001
    4    1           6.0000        -1.184217       -32.2242
    3    2          10.0000        -6.414313      -174.5423
    4    2           2.0000        -0.125045        -3.4027


  Species: S

  List of occupied orbitals and eigenvalues:
    n    l              occ      energy [Ha]    energy [eV]
    1    0           2.0000       -88.680731     -2413.1255
    2    0           2.0000        -7.781719      -211.7513
    3    0           2.0000        -0.633662       -17.2428
    2    1           6.0000        -5.751976      -156.5192
    3    1           4.0000        -0.257086        -6.9957


  Adding cutoff potential to free-atom effective potential.
  Creating fixed part of basis set: Ionic, confined, hydrogenic.

  Ba                   ion:

  List of free ionic orbitals and eigenvalues:
    n    l      energy [Ha]    energy [eV]
    1    0     -1428.980456    -38884.5366
    2    0      -218.370478     -5942.1630
    3    0       -45.972614     -1250.9785
    4    0        -9.173714      -249.6295
    5    0        -1.445296       -39.3285
    6    0        -0.278663        -7.5828
    2    1      -195.717553     -5325.7456
    3    1       -38.779502     -1055.2439
    4    1        -6.860306      -186.6784
    5    1        -0.894905       -24.3516
    3    2       -28.359770      -771.7086
    4    2        -3.506466       -95.4158


  List of ionic basis orbitals and eigenvalues:
    n    l      energy [Ha]    energy [eV]    outer radius [A]
    5    2        -0.260030        -7.0758       7.007670
    4    3        -0.142743        -3.8842       7.093864


  Ba                   hydrogenic:

  List of hydrogenic basis orbitals: 
    n    l      effective z      eigenvalue [eV]  inner max. [A]     outer max. [A]     outer radius [A]   
    3    1         2.700000       -11.0183           0.585865           2.360755           7.358861
    4    0         3.300000        -9.1387           0.118110           3.896996           7.449375
    4    3         5.800000       -28.6057           1.465516           1.465516           5.905331
    5    4         7.400000       -29.8017           1.782126           1.782126           6.354768


  Zr                   ion:

  List of free ionic orbitals and eigenvalues:
    n    l      energy [Ha]    energy [eV]
    1    0      -669.421026    -18215.8729
    2    0       -91.769634     -2497.1788
    3    0       -15.560469      -423.4219
    4    0        -2.663352       -72.4735
    5    0        -0.640863       -17.4388
    2    1       -81.886574     -2228.2470
    3    1       -12.354892      -336.1937
    4    1        -1.844122       -50.1811
    3    2        -7.101714      -193.2475
    4    2        -0.726930       -19.7808


  List of ionic basis orbitals and eigenvalues:
    n    l      energy [Ha]    energy [eV]    outer radius [A]
    4    2        -0.726920       -19.7805       5.008334
    5    1        -0.469561       -12.7774       5.455794
    5    0        -0.640774       -17.4363       5.389503


  Zr                   hydrogenic:

  List of hydrogenic basis orbitals: 
    n    l      effective z      eigenvalue [eV]  inner max. [A]     outer max. [A]     outer radius [A]   
    4    3         7.200000       -44.0822           1.169212           1.169212           5.008334
    5    4        10.400000       -58.8635           1.273673           1.273673           4.887365


  S                    ion:

  List of free ionic orbitals and eigenvalues:
    n    l      energy [Ha]    energy [eV]
    1    0       -89.703778     -2440.9640
    2    0        -8.775428      -238.7916
    3    0        -1.470343       -40.0101
    2    1        -6.747660      -183.6132
    3    1        -1.048627       -28.5346


  List of ionic basis orbitals and eigenvalues:
    n    l      energy [Ha]    energy [eV]    outer radius [A]
    3    2        -0.495605       -13.4861       5.386362
    3    0        -1.470336       -40.0099       3.967934


  S                    hydrogenic:

  List of hydrogenic basis orbitals: 
    n    l      effective z      eigenvalue [eV]  inner max. [A]     outer max. [A]     outer radius [A]   
    2    1         1.800000       -11.0118           1.168531           1.168531           5.452614
    4    3         7.000000       -41.6672           1.212182           1.212182           5.066981
    4    2         6.200000       -32.6848           0.582121           1.814567           5.386362
    5    4        10.800000       -63.4785           1.227092           1.227092           4.766538

  Creating atomic-like basis functions for current effective potential.

  Species Ba                  :

  List of atomic basis orbitals and eigenvalues:
    n    l      energy [Ha]    energy [eV]    outer radius [A]
    1    0     -1428.759176    -38878.5153       0.181180
    2    0      -218.156321     -5936.3355       0.481781
    3    0       -45.759571     -1245.1813       1.053516
    4    0        -8.961354      -243.8508       2.303735
    5    0        -1.235311       -33.6145       5.905331
    6    0        -0.117372        -3.1939       7.358861
    2    1      -195.503522     -5319.9215       0.493705
    3    1       -38.566500     -1049.4479       1.119920
    4    1        -6.648037      -180.9023       2.603304
    5    1        -0.686503       -18.6807       6.838410
    3    2       -28.146810      -765.9137       1.250174
    4    2        -3.294406       -89.6453       3.490975


  Species Zr                  :

  List of atomic basis orbitals and eigenvalues:
    n    l      energy [Ha]    energy [eV]    outer radius [A]
    1    0      -668.722933    -18196.8768       0.259930
[...]
    206       0.00000                       1.453505           1.459373             0.000000
    207       0.00000                       1.473068           1.474359             0.014987
    208       0.00000                       1.473068           1.474359             0.000000
    209       0.00000                       1.634981           1.653755             0.179396
    210       0.00000                       1.634981           1.653755             0.000000
    211       0.00000                       2.457354           2.482466             0.828711
    212       0.00000                       2.457354           2.482466             0.000000
    213       0.00000                       3.016966           3.020605             0.538139
    214       0.00000                       3.016966           3.020605             0.000000
    215       0.00000                       3.265358           3.280088             0.259483
    216       0.00000                       3.265358           3.280088             0.000000
    217       0.00000                       3.576276           3.570298             0.290210
    218       0.00000                       3.576276           3.570298             0.000000
    219       0.00000                       3.691938           3.697919             0.127621
    220       0.00000                       3.691938           3.697919             0.000000
    221       0.00000                       3.722693           3.729938             0.032019
    222       0.00000                       3.722693           3.729938             0.000000

  What follows are estimated values for band gap, HOMO, LUMO, etc.
  | They are estimated on a discrete k-point grid and not necessarily exact.
  | For converged numbers, create a DOS and/or band structure plot on a denser k-grid.

  Highest occupied state (VBM) at     -8.00529703 eV (relative to internal zero)
  | Occupation number:      1.00000000
  | K-point:      19 at    0.000000    0.500000    0.500000 (in units of recip. lattice)

  Lowest unoccupied state (CBM) at    -5.44833018 eV (relative to internal zero)
  | Occupation number:      0.00000000
  | K-point:     145 at    0.500000    0.500000    0.000000 (in units of recip. lattice)

  ESTIMATED overall HOMO-LUMO gap:      2.55696686 eV between HOMO at k-point 19 and LUMO at k-point 145
  | This appears to be an indirect band gap.
  | Smallest direct gap :      2.60388453 eV for k_point 19 at    0.000000    0.500000    0.500000 (in units of recip. lattice)
  The gap value is above 0.2 eV. Unless you are using a very sparse k-point grid,
  this system is most likely an insulator or a semiconductor.
  Calculating total density of states ...
  | Chemical potential is  -6.931824 eV.
  | writing DOS (shifted by electron chemical potential) to file KS_DOS_total.dat
  | writing DOS (raw data) to file KS_DOS_total_raw.dat
  | Note that, for insulating systems, the printed 'chemical potential' value is not uniquely defined.
  | It can be anywhere in the energy gap, as long as it correctly separates occupied and unoccupied states.
  | In systems with a gap, the physically relevant chemical potential is the VBM or HOMO.


  Spin-orbit coupling                                     :  max(cpu_time)    wall_clock(cpu1)
  | Computing matrix elements for SOC operator            :          1.795               1.796
  | Constructing second-variational Hamiltonian           :          0.035               0.035
  | Diagonalizing second-variational Hamiltonian          :          0.035               0.035
  | Syncing data and calculating occupations              :          0.013               0.007
  | Writing out data, calculating band gaps, etc.         :          0.003               0.077
  | Total SOC time                                        :          1.952               1.952

  Partial memory accounting:
  | Current value for overall tracked memory usage:
  |   Minimum:      179.398 MB (on task   0)
  |   Maximum:      560.057 MB (on task   3)
  |   Average:      300.497 MB
  | Peak value for overall tracked memory usage:
  |   Minimum:      432.166 MB (on task 141 after allocating ovlp3fn_nosplit)
  |   Maximum:      701.025 MB (on task  38 after allocating ovlp3fn_nosplit)
  |   Average:      574.857 MB
  | Largest tracked array allocation so far:
  |   Minimum:      361.875 MB (ovlp3fn_nosplit on task 140)
  |   Maximum:      599.062 MB (ovlp3fn_nosplit on task  37)
  |   Average:      486.445 MB
  Note:  These values currently only include a subset of arrays which are explicitly tracked.
  The "true" memory usage will be greater.
 ------------------------------------------------------------

  -------------------------------------------------------------------
  Writing the requested band structure output (LAPACK version):
  -------------------------------------------------------------------

  Integrating Hamiltonian matrix: batch-based integration.
  Time summed over all CPUs for integration: real work       57.749 s, elapsed       64.846 s
  Integrating SOC matrix: batch-based integration p2 version.
  Allocating        0.180 MB for dist_tab
  Allocating        0.180 MB for dist_tab_sq
  Allocating        0.539 MB for dir_tab
  Allocating        0.036 MB for i_basis_fns
  Allocating        1.191 MB for i_basis_fns_inv
  Allocating        0.036 MB for i_atom_fns
  Allocating        3.488 MB for gradient_basis_wave
  Allocating        0.009 MB for ylm_tab
  Allocating        0.002 MB for radial_wave
  Allocating        0.002 MB for radial_wave_deriv
  Allocating        0.025 MB for i_basis
  Allocating       14.911 MB for soc_shell
  Allocating        0.028 MB for cartesians
  Allocating        0.028 MB for sum_gradient
  Allocating        0.056 MB for sum_hessian
  Allocating        0.001 MB for potential_shell

  Treating all   41 k-points in band plot segment #   1:


  Scalar-relativistic "band gap" along reciprocal space direction number:    1
  | Lowest unoccupied state:      -5.44978640 eV
  | Highest occupied state :      -8.20696484 eV
  | Energy difference      :       2.75717844 eV


Spin-orbit-coupled "band gap" along reciprocal space direction number:    1
  | Lowest unoccupied state:      -5.44833018 eV
  | Highest occupied state :      -8.20494419 eV
  | Energy difference      :       2.75661402 eV


  Treating all    2 k-points in band plot segment #   2:


  Scalar-relativistic "band gap" along reciprocal space direction number:    2
  | Lowest unoccupied state:      -5.44978640 eV
  | Highest occupied state :      -8.54664967 eV
  | Energy difference      :       3.09686328 eV


Spin-orbit-coupled "band gap" along reciprocal space direction number:    2
  | Lowest unoccupied state:      -5.44833018 eV
  | Highest occupied state :      -8.52877176 eV
  | Energy difference      :       3.08044159 eV


  Treating all   22 k-points in band plot segment #   3:


  Scalar-relativistic "band gap" along reciprocal space direction number:    3
  | Lowest unoccupied state:      -5.44304123 eV
  | Highest occupied state :      -8.50511236 eV
  | Energy difference      :       3.06207113 eV


Spin-orbit-coupled "band gap" along reciprocal space direction number:    3
  | Lowest unoccupied state:      -5.44160046 eV
  | Highest occupied state :      -8.48933835 eV
  | Energy difference      :       3.04773789 eV


  Treating all   28 k-points in band plot segment #   4:


  Scalar-relativistic "band gap" along reciprocal space direction number:    4
  | Lowest unoccupied state:      -5.29762398 eV
  | Highest occupied state :      -8.50253449 eV
  | Energy difference      :       3.20491051 eV


Spin-orbit-coupled "band gap" along reciprocal space direction number:    4
  | Lowest unoccupied state:      -5.29618601 eV
  | Highest occupied state :      -8.47615703 eV
  | Energy difference      :       3.17997103 eV


  Treating all   40 k-points in band plot segment #   5:


  Scalar-relativistic "band gap" along reciprocal space direction number:    5
  | Lowest unoccupied state:      -4.24636534 eV
  | Highest occupied state :      -8.44205636 eV
  | Energy difference      :       4.19569102 eV


Spin-orbit-coupled "band gap" along reciprocal space direction number:    5
  | Lowest unoccupied state:      -4.24550917 eV
  | Highest occupied state :      -8.43534724 eV
  | Energy difference      :       4.18983807 eV


  Treating all   36 k-points in band plot segment #   6:


  Scalar-relativistic "band gap" along reciprocal space direction number:    6
  | Lowest unoccupied state:      -5.44855534 eV
  | Highest occupied state :      -8.41751226 eV
  | Energy difference      :       2.96895692 eV


Spin-orbit-coupled "band gap" along reciprocal space direction number:    6
  | Lowest unoccupied state:      -5.44709911 eV
  | Highest occupied state :      -8.40569620 eV
  | Energy difference      :       2.95859710 eV


  Treating all   22 k-points in band plot segment #   7:


  Scalar-relativistic "band gap" along reciprocal space direction number:    7
  | Lowest unoccupied state:      -5.44978640 eV
  | Highest occupied state :      -8.39238229 eV
  | Energy difference      :       2.94259589 eV


Spin-orbit-coupled "band gap" along reciprocal space direction number:    7
  | Lowest unoccupied state:      -5.44833018 eV
  | Highest occupied state :      -8.37615268 eV
  | Energy difference      :       2.92782250 eV


  Treating all   47 k-points in band plot segment #   8:


  Scalar-relativistic "band gap" along reciprocal space direction number:    8
  | Lowest unoccupied state:      -4.49678525 eV
  | Highest occupied state :      -8.12527894 eV
  | Energy difference      :       3.62849369 eV


Spin-orbit-coupled "band gap" along reciprocal space direction number:    8
  | Lowest unoccupied state:      -4.49629562 eV
  | Highest occupied state :      -8.11172972 eV
  | Energy difference      :       3.61543410 eV


  Treating all   40 k-points in band plot segment #   9:


  Scalar-relativistic "band gap" along reciprocal space direction number:    9
  | Lowest unoccupied state:      -5.40293429 eV
  | Highest occupied state :      -8.01051284 eV
  | Energy difference      :       2.60757855 eV


Spin-orbit-coupled "band gap" along reciprocal space direction number:    9
  | Lowest unoccupied state:      -5.40141250 eV
  | Highest occupied state :      -8.00529703 eV
  | Energy difference      :       2.60388453 eV


  Treating all   40 k-points in band plot segment #  10:


  Scalar-relativistic "band gap" along reciprocal space direction number:   10
  | Lowest unoccupied state:      -5.34806137 eV
  | Highest occupied state :      -8.05896942 eV
  | Energy difference      :       2.71090806 eV


Spin-orbit-coupled "band gap" along reciprocal space direction number:   10
  | Lowest unoccupied state:      -5.34611808 eV
  | Highest occupied state :      -8.05383711 eV
  | Energy difference      :       2.70771903 eV

  Scalar-relativistic "band gap" of total set of bands:
  | Lowest unoccupied state:      -5.44978640 eV
  | Highest occupied state :      -8.01051284 eV
  | Energy difference      :       2.56072644 eV

  Spin-orbit-coupled "band gap" of total set of bands:
  | Lowest unoccupied state:      -5.44833018 eV
  | Highest occupied state :      -8.00529703 eV
  | Energy difference      :       2.55696686 eV


  Band Structure                                          :  max(cpu_time) wall_clock(cpu1)
  | Total Time                                            :         22.876           23.291
------------------------------------------------------------

------------------------------------------------------------------------------
  Final output of selected total energy values:

  The following output summarizes some interesting total energy values
  at the end of a run (AFTER all relaxation, molecular dynamics, etc.).

  | Total energy of the DFT / Hartree-Fock s.c.f. calculation      :        -493830.665368893 eV
  | Final zero-broadening corrected energy (caution - metals only) :        -493830.665368893 eV
  | Total energy after non-SC SOC correction (DO NOT USE)          :        -493830.900613462 eV
  | For reference only, the value of 1 Hartree used in FHI-aims is :             27.211384500 eV
  | For reference only, the overall average (free atom contribution
  | + realspace contribution) of the electrostatic potential after
  | s.c.f. convergence is                                          :            -14.944072400 eV

  Before relying on these values, please be sure to understand exactly which
  total energy value is referred to by a given number. Different objects may
  all carry the same name 'total energy'. Definitions:

  Total energy of the DFT / Hartree-Fock s.c.f. calculation:
  | Note that this energy does not include ANY quantities calculated after the
  | s.c.f. cycle, in particular not ANY RPA, MP2, etc. many-body perturbation terms.

  Final zero-broadening corrected energy:
  | For metallic systems only, a broadening of the occupation numbers at the Fermi
  | level can be extrapolated back to zero broadening by an electron-gas inspired
  | formula. For all systems that are not real metals, this value can be
  | meaningless and should be avoided.

------------------------------------------------------------------------------
  Methods described in the following list of references were used in this FHI-aims run.
  If you publish the results, please make sure to cite these reference if they apply.
  FHI-aims is an academic code, and for our developers (often, Ph.D. students
  and postdocs), scientific credit in the community is essential.
  Thank you for helping us!

  For any use of FHI-aims, please cite:

    Volker Blum, Ralf Gehrke, Felix Hanke, Paula Havu, Ville Havu,
    Xinguo Ren, Karsten Reuter, and Matthias Scheffler
    'Ab initio molecular simulations with numeric atom-centered orbitals'
    Computer Physics Communications 180, 2175-2196 (2009)
    http://doi.org/10.1016/j.cpc.2009.06.022


  For Hartree-Fock, hybrid functionals, or many-body perturbation theory used in your run, please cite:

    Xinguo Ren, Patrick Rinke, Volker Blum, Juergen Wieferink, Alex Tkatchenko,
    Andrea Sanfilippo, Karsten Reuter, and Matthias Scheffler,
    'Resolution-of-identity approach to Hartree-Fock, hybrid density functionals,
    RPA, MP2, and GW with numeric atom-centered orbital basis functions'
    New Journal of Physics 14, 053020 (2012).
    http://doi.org/10.1088/1367-2630/14/5/053020


  The provided symmetry information was generated with SPGlib:

    Atsushi Togo, Yusuke Seto, Dimitar Pashov
    SPGlib 1.7.3 obtained from http://spglib.sourceforge.net
    Copyright (C) 2008 Atsushi Togo


  For second-variational spin-orbit coupling used in your run, please cite:

    William P. Huhn and Volker Blum,
    'One-hundred-three compound band-structure benchmark of post-self-consistent'
    'spin-orbit coupling treatments in density functional theory'
    Phys. Rev. Materials 1, 033803 (2017).


  The ELSI infrastructure was used in your run to solve the Kohn-Sham electronic structure.
  Please check out http://elsi-interchange.org to learn more.
  If scalability is important for your project, please acknowledge ELSI by citing:

    V. W-z. Yu, F. Corsetti, A. Garcia, W. P. Huhn, M. Jacquelin, W. Jia,
    B. Lange, L. Lin, J. Lu, W. Mi, A. Seifitokaldani, A. Vazquez-Mayagoitia,
    C. Yang, H. Yang, and V. Blum
    'ELSI: A unified software interface for Kohn-Sham electronic structure solvers'
    Computer Physics Communications 222, 267-285 (2018).
    http://doi.org/10.1016/j.cpc.2017.09.007


  For the real-space grid partitioning and parallelization used in this calculation, please cite:

    Ville Havu, Volker Blum, Paula Havu, and Matthias Scheffler,
    'Efficient O(N) integration for all-electron electronic structure calculation'
    'using numerically tabulated basis functions'
    Journal of Computational Physics 228, 8367-8379 (2009).
    http://doi.org/10.1016/j.jcp.2009.08.008


  The high-level electronic structure method used in your calculation
  employed our efficient localized resolution of identity for the Coulomb operator.
  Some calculations, especially large-scale hybrid density functional theory,
  are only possible thanks to this development. For this feature, please cite:

    Arvid Ihrig, Juergen Wieferink, Igor Ying Zhang, Matti Ropo, Xinguo Ren,
    Patrick Rinke, Matthias Scheffler, and Volker Blum,
    'Accurate localized resolution of identity approach for linear-scaling
    hybrid density functionals and for many-body perturbation theory'
    New Journal of Physics 117, 093020 (2015).
    http://doi.org/10.1088/1367-2630/17/9/093020

  Of course, there are many other important community references, e.g., those cited in the
  above references. Our list is limited to references that describe implementations in the
  FHI-aims code. The reason is purely practical (length of this list) - please credit others as well.

------------------------------------------------------------
          Leaving FHI-aims.
          Date     :  20220721, Time     :  150048.292

          Computational steps:
          | Number of self-consistency cycles          :           19
          | Number of SCF (re)initializations          :            1

          Detailed time accounting                     :  max(cpu_time)    wall_clock(cpu1)
          | Total time                                  :      747.281 s         748.532 s
          | Preparation time                            :        0.641 s           0.679 s
          | Boundary condition initalization            :        0.095 s           0.095 s
          | Grid partitioning                           :        0.093 s           0.093 s
          | Preloading free-atom quantities on grid     :        0.053 s           0.054 s
          | Free-atom superposition energy              :        0.005 s           0.005 s
          | Total time for integrations                 :        6.139 s           6.136 s
          | Product basis setup: Total time             :       25.224 s          25.472 s
          | Total time evaluating exchange matrix       :      676.656 s         676.932 s
          | Total time for solution of K.-S. equations  :        1.057 s           1.103 s
          | Total time for density update               :        9.702 s           9.683 s
          | Total time for mixing                       :        0.303 s           0.028 s
          | Total time for Hartree multipole update     :        0.045 s           0.043 s
          | Total time for Hartree multipole sum        :        1.530 s           1.534 s
          | Total time for total energy evaluation      :        0.020 s           0.017 s
          | Total time for scaled ZORA corrections      :        0.000 s           0.000 s
          | Total time for perturbative SOC             :        1.952 s           1.952 s
          | Total time for band structures, DOS         :       23.293 s          23.480 s

          Partial memory accounting:
          | Residual value for overall tracked memory usage across tasks:     0.000000 MB (should be 0.000000 MB)
          | Peak values for overall tracked memory usage:
          |   Minimum:      432.166 MB (on task 141 after allocating ovlp3fn_nosplit)
          |   Maximum:      701.025 MB (on task  38 after allocating ovlp3fn_nosplit)
          |   Average:      574.857 MB
          | Largest tracked array allocation:
          |   Minimum:      361.875 MB (ovlp3fn_nosplit on task 140)
          |   Maximum:      599.062 MB (ovlp3fn_nosplit on task  37)
          |   Average:      486.445 MB
          Note:  These values currently only include a subset of arrays which are explicitly tracked.
          The "true" memory usage will be greater.

          Have a nice day.
------------------------------------------------------------
