------------------------------------------------------------
          Invoking FHI-aims ...

          When using FHI-aims, please cite the following reference:

            Volker Blum, Ralf Gehrke, Felix Hanke, Paula Havu,
            Ville Havu, Xinguo Ren, Karsten Reuter, and Matthias Scheffler,
            'Ab Initio Molecular Simulations with Numeric Atom-Centered Orbitals',
            Computer Physics Communications 180, 2175-2196 (2009)

          In addition, many other developments in FHI-aims are likely important for
          your particular application. A partial list of references is given at the end of
          this file. Thank you for giving credit to the authors of these developments.

          For any questions about FHI-aims, please visit our slack channel at

            https://fhi-aims.slack.com

          and our main development and support site at

            https://aims-git.rz-berlin.mpg.de .

          The latter site, in particular, has a wiki to collect information, as well
          as an issue tracker to log discussions, suggest improvements, and report issues
          or bugs. https://aims-git.rz-berlin.mpg.de is also the main development site
          of the project and all new and updated code versions can be obtained there.
          Please send an email to aims-coordinators@fhi-berlin.mpg.de and we will add
          you to these sites. They are for you and everyone is welcome there.

------------------------------------------------------------



  Date     :  20230627, Time     :  184338.576
  Time zero on CPU 1             :   0.194381300000000E+01  s.
  Internal wall clock time zero  :           457123418.576  s.

  FHI-aims created a unique identifier for this run for later identification
  aims_uuid : 39E90086-E589-476D-ADA3-7DD18F5A3265

  Build configuration of the current instance of FHI-aims
  -------------------------------------------------------
  FHI-aims version      : 220619
  Commit number         : 375d76c9a
  CMake host system     : Linux-5.4.0-122-generic
  CMake version         : 3.16.3
  Fortran compiler      : /opt/intel/oneapi/mpi/2021.5.1/bin/mpiifort (Intel) version 20.2.5.20211109
  Fortran compiler flags: -O3 -ip -fp-model precise
  C compiler            : /opt/intel/oneapi/compiler/2022.0.2/linux/bin/intel64/icc (Intel) version 20.2.5.20211109
  C compiler flags      : -O3 -ip -fp-model precise -std=gnu99
  ELPA2 kernel          : AVX2
  Using MPI
  Using ScaLAPACK
  Using LibXC
  Using i-PI
  Using RLSY
  Linking against: /opt/intel/oneapi/mkl/2022.1.0/lib/intel64/libmkl_intel_lp64.so
                   /opt/intel/oneapi/mkl/2022.1.0/lib/intel64/libmkl_sequential.so
                   /opt/intel/oneapi/mkl/2022.1.0/lib/intel64/libmkl_core.so
                   /opt/intel/oneapi/mkl/2022.1.0/lib/intel64/libmkl_blacs_intelmpi_lp64.so
                   /opt/intel/oneapi/mkl/2022.1.0/lib/intel64/libmkl_scalapack_lp64.so

  Using       40 parallel tasks.
  Task        0 on host c21000127-lnx reporting.
  Task        1 on host c21000127-lnx reporting.
  Task        2 on host c21000127-lnx reporting.
  Task        3 on host c21000127-lnx reporting.
  Task        4 on host c21000127-lnx reporting.
  Task        5 on host c21000127-lnx reporting.
  Task        6 on host c21000127-lnx reporting.
  Task        7 on host c21000127-lnx reporting.
  Task        8 on host c21000127-lnx reporting.
  Task        9 on host c21000127-lnx reporting.
  Task       10 on host c21000127-lnx reporting.
  Task       11 on host c21000127-lnx reporting.
  Task       12 on host c21000127-lnx reporting.
  Task       13 on host c21000127-lnx reporting.
  Task       14 on host c21000127-lnx reporting.
  Task       15 on host c21000127-lnx reporting.
  Task       16 on host c21000127-lnx reporting.
  Task       17 on host c21000127-lnx reporting.
  Task       18 on host c21000127-lnx reporting.
  Task       19 on host c21000127-lnx reporting.
  Task       20 on host c21000127-lnx reporting.
  Task       21 on host c21000127-lnx reporting.
  Task       22 on host c21000127-lnx reporting.
  Task       23 on host c21000127-lnx reporting.
  Task       24 on host c21000127-lnx reporting.
  Task       25 on host c21000127-lnx reporting.
  Task       26 on host c21000127-lnx reporting.
  Task       27 on host c21000127-lnx reporting.
  Task       28 on host c21000127-lnx reporting.
  Task       29 on host c21000127-lnx reporting.
  Task       30 on host c21000127-lnx reporting.
  Task       31 on host c21000127-lnx reporting.
  Task       32 on host c21000127-lnx reporting.
  Task       33 on host c21000127-lnx reporting.
  Task       34 on host c21000127-lnx reporting.
  Task       35 on host c21000127-lnx reporting.
  Task       36 on host c21000127-lnx reporting.
  Task       37 on host c21000127-lnx reporting.
  Task       38 on host c21000127-lnx reporting.
  Task       39 on host c21000127-lnx reporting.

  Performing system and environment tests:
  *** Environment variable OMP_NUM_THREADS is not set
  *** For performance reasons you might want to set it to 1
  | Checking for ScaLAPACK...
  | Testing pdtran()...
  | All pdtran() tests passed.

  Obtaining array dimensions for all initial allocations:
  
  -----------------------------------------------------------------------
  Parsing control.in (first pass over file, find array dimensions only).
  The contents of control.in will be repeated verbatim below
  unless switched off by setting 'verbatim_writeout .false.' .
  in the first line of control.in .
  -----------------------------------------------------------------------
  
  xc               pbesol
  charge           0.
  spin             none
  relativistic atomic_zora scalar
  k_grid                12 12 4
  sc_accuracy_rho       1E-7
  include_spin_orbit
  output                             band   0.00000  0.00000  0.00000  -0.50000  0.50000  0.00000   46 G  X
   output                             band  -0.50000  0.50000  0.00000  -0.50000  0.50000 -0.00991    2 X  Y
   output                             band  -0.50000  0.50000 -0.00991  -0.25495  0.25495 -0.25495   32 Y  S
   output                             band  -0.25495  0.25495 -0.25495   0.00000  0.00000  0.00000   33 S  G
   output                             band   0.00000  0.00000  0.00000   0.50000  0.50000 -0.50000    9 G  Z
   output                             band   0.50000  0.50000 -0.50000   0.25495  0.74505 -0.74505   32 Z  S1
   output                             band   0.25495  0.74505 -0.74505   0.00000  0.50000 -0.50000    5 S1 N
   output                             band   0.00000  0.50000 -0.50000  -0.25000  0.75000 -0.25000   32 N  P
   output                             band  -0.25000  0.75000 -0.25000   0.00991  0.99009 -0.50000    5 P  Y1
   output                             band   0.00991  0.99009 -0.50000   0.50000  0.50000 -0.50000   45 Y1 Z
   output                             band  -0.50000  0.50000  0.00000  -0.25000  0.75000 -0.25000    5 X  P
  
  ################################################################################
  #
  #  FHI-aims code project
  #  Volker Blum, Fritz Haber Institute Berlin, 2009
  #
  #  Suggested "tight" defaults for Ba atom (to be pasted into control.in file)
  #
  #  The onset of the cutoff pot'l WAS set to 8 A by default, because the neutral
  #  Ba atom is a large atom. However, this is very expensive. The radius should be
  #  much smaller in real-world situations, where Ba will be ionic. Please check
  #  and reduce the cutoff radius explicitly.
  #
  #  2015/11/12 : f and g functions from tier2 added to default basis set choice.
  #               These functions make a difference in the "delta test".
  #               Reduced the default cutoff radius to 6AA. The free-atom 6s function
  #               requires more. However, 6AA is already VERY expensive for
  #               any production calculations. In fact, revisit this choice for
  #               ionic systems to see if a smaller cutoff radius will do.
  #
  ################################################################################
    species          Ba
  #     global species definitions
      nucleus        56
      mass           137.327
  #
      l_hartree      6
  #
      cut_pot        6.0  2.0  1.0
      basis_dep_cutoff    1e-4
  #
      radial_base    65  7.0
      radial_multiplier  2
      angular_grids specified
        division   0.6752  110
        division   0.9746  194
        division   1.2241  302
        division   1.3850  434
  #      division   1.4734  590
  #      division   1.6010  770
  #      division   4.8366  974
  #      outer_grid  974
        outer_grid  434
  ################################################################################
  #
  #  Definition of "minimal" basis
  #
  ################################################################################
  #     valence basis states
      valence      6  s   2.
      valence      5  p   6.
      valence      4  d  10.
  #     ion occupancy
      ion_occ      6  s   1.
      ion_occ      5  p   6.
      ion_occ      4  d  10.
  ################################################################################
  #
  #  Suggested additional basis functions. For production calculations,
  #  uncomment them one after another (the most important basis functions are
  #  listed first).
  #
  #  Constructed for dimers: 2.65, 3.00, 3.50, 4.40, 5.50 Ang
  #
  ################################################################################
  #  "First tier" - improvements: -1277.43 meV to -9.16 meV
       ionic 5 d auto
       ionic 4 f auto
       hydro 3 p 2.7
       hydro 4 s 3.3
  #  "Second tier" - improvements: -64.04 (!) meV to -0.25 meV
       hydro 4 f 5.8
       hydro 5 g 7.4
  #     hydro 4 d 4.5
  #     hydro 6 h 11.2
  #     hydro 5 p 6.6
  #     hydro 2 s 3.2
  #  "Third tier" - max. impr. -1.16 meV, min. impr. -0.08 meV
  #     hydro 5 f 7.4
  #     hydro 5 g 10.8
  #     hydro 4 d 2.3
  #     hydro 4 p 3.7
  #     hydro 5 s 4.0
  #  Further functions - impr. -0.35 meV and below
  #     hydro 5 d 3.5
  #     hydro 6 d 0.4
  #     hydro 2 p 2.5
  #     hydro 5 f 12
  #     hydro 6 d 8.8
  ################################################################################
  #
  #  FHI-aims code project
  #  Volker Blum, Fritz Haber Institute Berlin, 2009
  #
  #  Suggested "tight" defaults for Zr atom (to be pasted into control.in file)
  #
  ################################################################################
    species          Zr
  #     global species definitions
      nucleus        40
      mass           91.224
  #
      l_hartree      6
  #
      cut_pot        4.0  2.0  1.0
      basis_dep_cutoff    1e-4
  #
      radial_base    58  7.0
      radial_multiplier  2
      angular_grids specified
        division   0.3653   50
        division   0.8035  110
        division   1.2273  194
        division   1.4586  302
        division   1.6764  434
  #      division   1.9671  590
  #      division   2.1961  770
  #      division   2.3240  974
  #      division   3.4772 1202
  #      outer_grid  974
        outer_grid  434
  ################################################################################
  #
  #  Definition of "minimal" basis
  #
  ################################################################################
  #     valence basis states
      valence      5  s   2.
      valence      4  p   6.
      valence      4  d   2.
  #     ion occupancy
      ion_occ      5  s   1.
      ion_occ      4  p   6.
      ion_occ      4  d   1.
  ################################################################################
  #
  #  Suggested additional basis functions. For production calculations,
  #  uncomment them one after another (the most important basis functions are
  #  listed first).
  #
  #  Constructed for dimers: 1.9, 2.25, 3.00, 4.00 Ang
  #
  ################################################################################
  #  "First tier" - improvements: -605.96 meV to -18.06 meV
       hydro 4 f 7.2
       ionic 4 d auto
       ionic 5 p auto
       hydro 5 g 10.4
       ionic 5 s auto
  #  "Second tier" - improvements: -32.47 meV to -1.41 meV
  #     hydro 4 f 10.4
  #     hydro 6 h 14.8
  #     hydro 4 d 6.2
  #     hydro 4 p 4.4
  #     hydro 4 f 20
  #     hydro 5 s 6
  #  "Third tier" - improvements: -1.99 meV and lower.
  #     hydro 4 f 5.8
  #     hydro 5 g 10.8
  #     hydro 2 p 1
  #     hydro 3 d 8
  #     hydro 6 h 14.4
  #     hydro 1 s 0.9
  #  Further functions (approx -0.40 meV and below possible)
  ################################################################################
  #
  #  FHI-aims code project
  #  Volker Blum, Fritz Haber Institute Berlin, 2009
  #
  #  Suggested "tight" defaults for S atom (to be pasted into control.in file)
  #
  #  Revised Jan 04, 2011, following tests (SiC) done by Lydia Nemec:
  #     d and g functions of tier 2 now enabled by default.
  #
  ################################################################################
    species        S
  #     global species definitions
      nucleus             16
      mass                32.065
  #
      l_hartree           6
  #
      cut_pot             4.0          2.0  1.0
      basis_dep_cutoff    1e-4
  #
      radial_base         44 7.0
      radial_multiplier   2
      angular_grids       specified
        division   0.4665  110
        division   0.5810  194
        division   0.7139  302
        division   0.8274  434
  #      division   0.9105  590
  #      division   1.0975  770
  #      division   1.2028  974
  #      outer_grid  974
        outer_grid  434
  ################################################################################
  #
  #  Definition of "minimal" basis
  #
  ################################################################################
  #     valence basis states
      valence      3  s   2.
      valence      3  p   4.
  #     ion occupancy
      ion_occ      3  s   1.
      ion_occ      3  p   3.
  ################################################################################
  #
  #  Suggested additional basis functions. For production calculations,
  #  uncomment them one after another (the most important basis functions are
  #  listed first).
  #
  #  Constructed for dimers: 1.6 A, 1.9 A, 2.5 A, 3.25 A, 4.0 A
  #
  ################################################################################
  #  "First tier" - improvements: -652.81 meV to -45.53 meV
       ionic 3 d auto
       hydro 2 p 1.8
       hydro 4 f 7
       ionic 3 s auto
  #  "Second tier" - improvements: -30.20 meV to -1.74 meV
       hydro 4 d 6.2
       hydro 5 g 10.8
  #     hydro 4 p 4.9
  #     hydro 5 f 10
  #     hydro 1 s 0.8
  #  "Third tier" - improvements: -1.04 meV to -0.20 meV
  #     hydro 3 d 3.9
  #     hydro 3 d 2.7
  #     hydro 5 g 12
  #     hydro 4 p 10.4
  #     hydro 5 f 12.4
  #     hydro 2 s 1.9
  #  "Fourth tier" - improvements: -0.35 meV to -0.06 meV
  #     hydro 4 d 10.4
  #     hydro 4 p 7.2
  #     hydro 4 d 10
  #     hydro 5 g 19.2
  #     hydro 4 s 12
  
  ################################################################################
  #
  # For methods that use the localized form of the "resolution of identity" for
  # the two-electron Coulomb operator (RI_method LVL), particularly Hartree-Fock and
  # hybrid density functional calculations, the highest accuracy can be obtained by
  # uncommenting the line beginning with "for_aux"  below, thus adding an extra g radial
  # function to the construction of the product basis set for the expansion.
  # See Ref. New J. Phys. 17, 093020 (2015) for more information, particularly Figs. 1 and 6.
  #
  ################################################################################
  #
  # for_aux hydro 5 g 6.0
  
  -----------------------------------------------------------------------
  Completed first pass over input file control.in .
  -----------------------------------------------------------------------
  
  
  -----------------------------------------------------------------------
  Parsing geometry.in (first pass over file, find array dimensions only).
  The contents of geometry.in will be repeated verbatim below
  unless switched off by setting 'verbatim_writeout .false.' .
  in the first line of geometry.in .
  -----------------------------------------------------------------------
  
  #
  # This is the geometry file that corresponds to the current relaxation step.
  # If you do not want this file to be written, set the "write_restart_geometry" flag to .false.
  #  aims_uuid : 5FC98825-6734-4BE9-A362-6C0DBC9A7B7E
  #
  lattice_vector     -2.48105213      2.48105213     17.62475482
  lattice_vector      2.48105213     -2.48105213     17.62475482
  lattice_vector      2.48105213      2.48105213    -17.62475482
  atom_frac       0.43255747      0.43255747      0.00000000 Ba
  atom_frac       0.56744253      0.56744253      0.00000000 Ba
  atom_frac       0.30051574      0.30051574      0.00000000 Ba
  atom_frac       0.69948426      0.69948426      0.00000000 Ba
  atom_frac       0.50000000      0.00000000      0.50000000 S
  atom_frac       1.00000000      0.50000000      0.50000000 S
  atom_frac       0.92932555      0.92932555      0.00000000 S
  atom_frac       0.07067445      0.07067445      0.00000000 S
  atom_frac       0.78624821      0.78624821      0.00000000 S
  atom_frac       0.21375179      0.21375179      0.00000000 S
  atom_frac       0.86079726      0.36079726      0.50000000 S
  atom_frac       0.36079726      0.86079726      0.50000000 S
  atom_frac       0.13920274      0.63920274      0.50000000 S
  atom_frac       0.63920274      0.13920274      0.50000000 S
  atom_frac       0.00000000      0.00000000      0.00000000 Zr
  atom_frac       0.85662999      0.85662999      0.00000000 Zr
  atom_frac       0.14337001      0.14337001      0.00000000 Zr
  #
  # What follows is the current estimated Hessian matrix constructed by the BFGS algorithm.
  # This is NOT the true Hessian matrix of the system.
  # If you do not want this information here, switch it off using the "hessian_to_restart_geometry" keyword.
  #
  trust_radius             0.0393308813
  hessian_block                1       1         131.943012         -32.438120        -112.533541         -32.438120         234.19761
  hessian_block                1       2          -3.546407         -69.802173         -32.359453          60.507649         119.65036
  hessian_block                2       2         697.414894        -433.632458          19.311792        -433.632458         685.21817
  hessian_block_lv             1       1          34.788311           1.149061           0.000000           1.149061           0.35723
  hessian_block_lv_atom        1       1           0.802400          -0.258929           0.000000          -7.349471           1.49601
  hessian_block_lv_atom        1       2         -21.861165          -6.822515           0.000000           7.230975           3.29999
  
  -----------------------------------------------------------------------
  Completed first pass over input file geometry.in .
  -----------------------------------------------------------------------
  

  Basic array size parameters:
  | Number of species                 :        3
  | Number of atoms                   :       17
  | Number of lattice vectors         :        3
  | Max. basis fn. angular momentum   :        4
  | Max. atomic/ionic basis occupied n:        6
  | Max. number of basis fn. types    :        3
  | Max. radial fns per species/type  :       12
  | Max. logarithmic grid size        :     1460
  | Max. radial integration grid size :      131
  | Max. angular integration grid size:      434
  | Max. angular grid division number :        8
  | Radial grid for Hartree potential :     1460
  | Number of spin channels           :        1

------------------------------------------------------------
          Reading file control.in.
------------------------------------------------------------
  XC: Using PBEsol gradient-corrected functionals.
  Charge =   0.000000E+00: Neutral system requested explicitly.
  Spin treatment: No spin polarisation.
  Scalar relativistic treatment of kinetic energy: on-site free-atom approximation to ZORA.
  Found k-point grid:        12        12         4
  Convergence accuracy of self-consistent charge density:  0.1000E-06
  Calculating non-self-consistent second-variational spin-orbit coupling after scf-cycle

  Plot band    1
  | begin  0.000000  0.000000  0.000000
  | end   -0.500000  0.500000  0.000000
  | number of points:   46

  Plot band    2
  | begin -0.500000  0.500000  0.000000
  | end   -0.500000  0.500000 -0.009910
  | number of points:    2

  Plot band    3
  | begin -0.500000  0.500000 -0.009910
  | end   -0.254950  0.254950 -0.254950
  | number of points:   32

  Plot band    4
  | begin -0.254950  0.254950 -0.254950
  | end    0.000000  0.000000  0.000000
  | number of points:   33

  Plot band    5
  | begin  0.000000  0.000000  0.000000
  | end    0.500000  0.500000 -0.500000
  | number of points:    9

  Plot band    6
  | begin  0.500000  0.500000 -0.500000
  | end    0.254950  0.745050 -0.745050
  | number of points:   32

  Plot band    7
  | begin  0.254950  0.745050 -0.745050
  | end    0.000000  0.500000 -0.500000
  | number of points:    5

  Plot band    8
  | begin  0.000000  0.500000 -0.500000
  | end   -0.250000  0.750000 -0.250000
  | number of points:   32

  Plot band    9
  | begin -0.250000  0.750000 -0.250000
  | end    0.009910  0.990090 -0.500000
  | number of points:    5

  Plot band   10
  | begin  0.009910  0.990090 -0.500000
  | end    0.500000  0.500000 -0.500000
  | number of points:   45

  Plot band   11
  | begin -0.500000  0.500000  0.000000
  | end   -0.250000  0.750000 -0.250000
  | number of points:    5
 
  Reading configuration options for species Ba                  .
  | Found nuclear charge :  56.0000
  | Found atomic mass :    137.327000000000      amu
  | Found l_max for Hartree potential  :   6
  | Found cutoff potl. onset [A], width [A], scale factor :    6.00000    2.00000    1.00000
  | Threshold for basis-dependent cutoff potential is   0.100000E-03
  | Found data for basic radial integration grid :    65 points, outermost radius =    7.000 A
  | Found multiplier for basic radial grid :   2
  | Found angular grid specification: user-specified.
  | Specified grid contains     5 separate shells.
  | Check grid settings after all constraints further below.
  | Found free-atom valence shell :  6 s   2.000
  | Found free-atom valence shell :  5 p   6.000
  | Found free-atom valence shell :  4 d  10.000
  | Found free-ion valence shell :  6 s   1.000
  | Found free-ion valence shell :  5 p   6.000
  | Found free-ion valence shell :  4 d  10.000
  | Found ionic basis function :  5 d , default cutoff radius.
  | Found ionic basis function :  4 f , default cutoff radius.
  | Found hydrogenic basis function :  3 p   2.700
  | Found hydrogenic basis function :  4 s   3.300
  | Found hydrogenic basis function :  4 f   5.800
  | Found hydrogenic basis function :  5 g   7.400
  Species Ba                  : Missing cutoff potential type.
  Defaulting to exp(1/x)/(1-x)^2 type cutoff potential.
  Species Ba: No 'logarithmic' tag. Using default grid for free atom:
  | Default logarithmic grid data [bohr] : 0.1000E-03 0.1000E+03 0.1012E+01
  | Will include ionic basis functions of  1.0-fold positive Ba                   ion.
  Species Ba: On-site basis accuracy parameter (for Gram-Schmidt orthonormalisation) not specified.
  Using default value basis_acc =  0.1000000E-03.
  Species Ba                  : Using default innermost maximum threshold i_radial=  2 for radial functions.
  Species Ba                  : Default cutoff onset for free atom density etc. : 0.60000000E+01 AA.
  Species Ba                  : Basic radial grid will be enhanced according to radial_multiplier =   2, to contain   131 grid points.
 
  Reading configuration options for species Zr                  .
  | Found nuclear charge :  40.0000
  | Found atomic mass :    91.2240000000000      amu
  | Found l_max for Hartree potential  :   6
  | Found cutoff potl. onset [A], width [A], scale factor :    4.00000    2.00000    1.00000
  | Threshold for basis-dependent cutoff potential is   0.100000E-03
  | Found data for basic radial integration grid :    58 points, outermost radius =    7.000 A
  | Found multiplier for basic radial grid :   2
  | Found angular grid specification: user-specified.
  | Specified grid contains     6 separate shells.
  | Check grid settings after all constraints further below.
  | Found free-atom valence shell :  5 s   2.000
  | Found free-atom valence shell :  4 p   6.000
  | Found free-atom valence shell :  4 d   2.000
  | Found free-ion valence shell :  5 s   1.000
  | Found free-ion valence shell :  4 p   6.000
  | Found free-ion valence shell :  4 d   1.000
  | Found hydrogenic basis function :  4 f   7.200
  | Found ionic basis function :  4 d , default cutoff radius.
  | Found ionic basis function :  5 p , default cutoff radius.
  | Found hydrogenic basis function :  5 g  10.400
  | Found ionic basis function :  5 s , default cutoff radius.
  Species Zr                  : Missing cutoff potential type.
  Defaulting to exp(1/x)/(1-x)^2 type cutoff potential.
  Species Zr: No 'logarithmic' tag. Using default grid for free atom:
  | Default logarithmic grid data [bohr] : 0.1000E-03 0.1000E+03 0.1012E+01
  | Will include ionic basis functions of  2.0-fold positive Zr                   ion.
  Species Zr: On-site basis accuracy parameter (for Gram-Schmidt orthonormalisation) not specified.
  Using default value basis_acc =  0.1000000E-03.
  Species Zr                  : Using default innermost maximum threshold i_radial=  2 for radial functions.
  Species Zr                  : Default cutoff onset for free atom density etc. : 0.40000000E+01 AA.
  Species Zr                  : Basic radial grid will be enhanced according to radial_multiplier =   2, to contain   117 grid points.
 
  Reading configuration options for species S                   .
  | Found nuclear charge :  16.0000
  | Found atomic mass :    32.0650000000000      amu
  | Found l_max for Hartree potential  :   6
  | Found cutoff potl. onset [A], width [A], scale factor :    4.00000    2.00000    1.00000
  | Threshold for basis-dependent cutoff potential is   0.100000E-03
  | Found data for basic radial integration grid :    44 points, outermost radius =    7.000 A
  | Found multiplier for basic radial grid :   2
  | Found angular grid specification: user-specified.
  | Specified grid contains     5 separate shells.
  | Check grid settings after all constraints further below.
  | Found free-atom valence shell :  3 s   2.000
  | Found free-atom valence shell :  3 p   4.000
  | Found free-ion valence shell :  3 s   1.000
  | Found free-ion valence shell :  3 p   3.000
  | Found ionic basis function :  3 d , default cutoff radius.
  | Found hydrogenic basis function :  2 p   1.800
  | Found hydrogenic basis function :  4 f   7.000
  | Found ionic basis function :  3 s , default cutoff radius.
  | Found hydrogenic basis function :  4 d   6.200
  | Found hydrogenic basis function :  5 g  10.800
  Species S                   : Missing cutoff potential type.
  Defaulting to exp(1/x)/(1-x)^2 type cutoff potential.
  Species S : No 'logarithmic' tag. Using default grid for free atom:
  | Default logarithmic grid data [bohr] : 0.1000E-03 0.1000E+03 0.1012E+01
  | Will include ionic basis functions of  2.0-fold positive S                    ion.
  Species S : On-site basis accuracy parameter (for Gram-Schmidt orthonormalisation) not specified.
  Using default value basis_acc =  0.1000000E-03.
  Species S                   : Using default innermost maximum threshold i_radial=  2 for radial functions.
  Species S                   : Default cutoff onset for free atom density etc. : 0.40000000E+01 AA.
  Species S                   : Basic radial grid will be enhanced according to radial_multiplier =   2, to contain    89 grid points.
 
  Finished reading input file 'control.in'.
 
------------------------------------------------------------


------------------------------------------------------------
          Reading geometry description geometry.in.
------------------------------------------------------------
  | The smallest distance between any two atoms is         2.48092323 AA.
  | The first atom of this pair is atom number                      9 .
  | The second atom of this pair is atom number                    16 .
  | Wigner-Seitz cell of the first atom image           0     0     0 .
  | (The Wigner-Seitz cell of the second atom is 0 0 0  by definition.)

  Symmetry information by spglib:
  | Precision set to  0.1E-04
  | Number of Operations  : 16
  | Space group           : 139
  | International         : I4/mmm 0000
  | Schoenflies           : D4h^17
  Input structure read successfully.
  The structure contains       17 atoms,  and a total of        504.000 electrons.

  Input geometry:
  | Unit cell:
  |       -2.48105213        2.48105213       17.62475482
  |        2.48105213       -2.48105213       17.62475482
  |        2.48105213        2.48105213      -17.62475482
  | Atomic structure:
  |       Atom                x [A]            y [A]            z [A]
  |    1: Species Ba            0.00000000        0.00000000       15.24743871
  |    2: Species Ba            0.00000000        0.00000000       20.00207093
  |    3: Species Ba            0.00000000        0.00000000       10.59303247
  |    4: Species Ba            0.00000000        0.00000000       24.65647717
  |    5: Species S             0.00000000        2.48105213        0.00000000
  |    6: Species S             0.00000000        2.48105213       17.62475482
  |    7: Species S             0.00000000        0.00000000       32.75826993
  |    8: Species S             0.00000000        0.00000000        2.49123971
  |    9: Species S             0.00000000        0.00000000       27.71486386
  |   10: Species S             0.00000000        0.00000000        7.53464578
  |   11: Species S            -0.00000000        2.48105213       12.71792649
  |   12: Species S             2.48105213       -0.00000000       12.71792649
  |   13: Species S             2.48105213        0.00000000        4.90682833
  |   14: Species S             0.00000000        2.48105213        4.90682833
  |   15: Species Zr            0.00000000        0.00000000        0.00000000
  |   16: Species Zr            0.00000000        0.00000000       30.19578709
  |   17: Species Zr            0.00000000        0.00000000        5.05372255

  Lattice parameters for 3D lattice (in Angstroms) :    17.970621   17.970621   17.970621
  Angle(s) between unit vectors (in degrees)       :   164.128614  164.128614   22.518486


  Quantities derived from the lattice vectors (in Angstrom^-1):
  | Reciprocal lattice vector 1:  0.000000  1.266234  0.178249
  | Reciprocal lattice vector 2:  1.266234  0.000000  0.178249
  | Reciprocal lattice vector 3:  1.266234  1.266234  0.000000
  | Unit cell volume                               :   0.433965E+03  Angstrom^3

  Fractional coordinates:
                         L1                L2                L3
       atom_frac         0.43255747        0.43255747        0.00000000  Ba
       atom_frac         0.56744253        0.56744253        0.00000000  Ba
       atom_frac         0.30051574        0.30051574        0.00000000  Ba
       atom_frac         0.69948426        0.69948426        0.00000000  Ba
       atom_frac         0.50000000        0.00000000        0.50000000  S
       atom_frac         1.00000000        0.50000000        0.50000000  S
       atom_frac         0.92932555        0.92932555        0.00000000  S
       atom_frac         0.07067445        0.07067445        0.00000000  S
       atom_frac         0.78624821        0.78624821        0.00000000  S
       atom_frac         0.21375179        0.21375179        0.00000000  S
       atom_frac         0.86079726        0.36079726        0.50000000  S
       atom_frac         0.36079726        0.86079726        0.50000000  S
       atom_frac         0.13920274        0.63920274        0.50000000  S
       atom_frac         0.63920274        0.13920274        0.50000000  S
       atom_frac         0.00000000        0.00000000        0.00000000  Zr
       atom_frac         0.85662999        0.85662999        0.00000000  Zr
       atom_frac         0.14337001        0.14337001        0.00000000  Zr

 
  Finished reading input file 'control.in'.
 

------------------------------------------------------------
          Reading geometry description geometry.in.
------------------------------------------------------------
 
  Consistency checks for stacksize environment parameter are next.
 
  | Maximum stacksize for task 0: unlimited
  | Maximum stacksize for task 1: unlimited
  | Maximum stacksize for task 2: unlimited
  | Maximum stacksize for task 3: unlimited
  | Maximum stacksize for task 4: unlimited
  | Maximum stacksize for task 5: unlimited
  | Maximum stacksize for task 6: unlimited
  | Maximum stacksize for task 7: unlimited
  | Maximum stacksize for task 8: unlimited
  | Maximum stacksize for task 9: unlimited
  | Maximum stacksize for task 10: unlimited
  | Maximum stacksize for task 11: unlimited
  | Maximum stacksize for task 12: unlimited
  | Maximum stacksize for task 13: unlimited
  | Maximum stacksize for task 14: unlimited
  | Maximum stacksize for task 15: unlimited
  | Maximum stacksize for task 16: unlimited
  | Maximum stacksize for task 17: unlimited
  | Maximum stacksize for task 18: unlimited
  | Maximum stacksize for task 19: unlimited
  | Maximum stacksize for task 20: unlimited
  | Maximum stacksize for task 21: unlimited
  | Maximum stacksize for task 22: unlimited
  | Maximum stacksize for task 23: unlimited
  | Maximum stacksize for task 24: unlimited
  | Maximum stacksize for task 25: unlimited
  | Maximum stacksize for task 26: unlimited
  | Maximum stacksize for task 27: unlimited
  | Maximum stacksize for task 28: unlimited
  | Maximum stacksize for task 29: unlimited
  | Maximum stacksize for task 30: unlimited
  | Maximum stacksize for task 31: unlimited
  | Maximum stacksize for task 32: unlimited
  | Maximum stacksize for task 33: unlimited
  | Maximum stacksize for task 34: unlimited
  | Maximum stacksize for task 35: unlimited
  | Maximum stacksize for task 36: unlimited
  | Maximum stacksize for task 37: unlimited
  | Maximum stacksize for task 38: unlimited
  | Maximum stacksize for task 39: unlimited
  | Current stacksize for task 0: unlimited
  | Current stacksize for task 1: unlimited
  | Current stacksize for task 2: unlimited
  | Current stacksize for task 3: unlimited
  | Current stacksize for task 4: unlimited
  | Current stacksize for task 5: unlimited
  | Current stacksize for task 6: unlimited
  | Current stacksize for task 7: unlimited
  | Current stacksize for task 8: unlimited
  | Current stacksize for task 9: unlimited
  | Current stacksize for task 10: unlimited
  | Current stacksize for task 11: unlimited
  | Current stacksize for task 12: unlimited
  | Current stacksize for task 13: unlimited
  | Current stacksize for task 14: unlimited
  | Current stacksize for task 15: unlimited
  | Current stacksize for task 16: unlimited
  | Current stacksize for task 17: unlimited
  | Current stacksize for task 18: unlimited
  | Current stacksize for task 19: unlimited
  | Current stacksize for task 20: unlimited
  | Current stacksize for task 21: unlimited
  | Current stacksize for task 22: unlimited
  | Current stacksize for task 23: unlimited
  | Current stacksize for task 24: unlimited
  | Current stacksize for task 25: unlimited
  | Current stacksize for task 26: unlimited
  | Current stacksize for task 27: unlimited
  | Current stacksize for task 28: unlimited
  | Current stacksize for task 29: unlimited
  | Current stacksize for task 30: unlimited
  | Current stacksize for task 31: unlimited
  | Current stacksize for task 32: unlimited
  | Current stacksize for task 33: unlimited
  | Current stacksize for task 34: unlimited
  | Current stacksize for task 35: unlimited
  | Current stacksize for task 36: unlimited
  | Current stacksize for task 37: unlimited
  | Current stacksize for task 38: unlimited
  | Current stacksize for task 39: unlimited
 
  Consistency checks for the contents of control.in are next.
 
  MPI_IN_PLACE appears to work with this MPI implementation.
  | Keeping use_mpi_in_place .true. (see manual).
  Target number of points in a grid batch is not set. Defaulting to  100
  Method for grid partitioning is not set. Defaulting to parallel hash+maxmin partitioning.
  Batch size limit is not set. Defaulting to    200
  By default, will store active basis functions for each batch.
  If in need of memory, prune_basis_once .false. can be used to disable this option.
  communication_type for Hartree potential was not specified.
  Defaulting to calc_hartree .
  Defaulting to Pulay charge density mixer.
  Pulay mixer: Number of relevant iterations not set.
  Defaulting to    8 iterations.
  Pulay mixer: Number of initial linear mixing iterations not set.
  Defaulting to    0 iterations.
  Work space size for distributed Hartree potential not set.
  Defaulting to   0.200000E+03 MB.
  Mixing parameter for charge density mixing has not been set.
  Using default: charge_mix_param =     0.0500.
  The mixing parameter will be adjusted in iteration number     2 of the first full s.c.f. cycle only.
  Algorithm-dependent basis array size parameters:
  | n_max_pulay                         :        8
  Maximum number of self-consistency iterations not provided.
  Presetting  1000 iterations.
  Presetting      1001 iterations before the initial mixing cycle
  is restarted anyway using the sc_init_iter criterion / keyword.
  Presetting a factor      1.000 between actual scf density residual
  and density convergence criterion sc_accuracy_rho below which sc_init_iter
  takes no effect.
  Calculation of forces was not defined in control.in. No forces will be calculated.
  Geometry relaxation not requested: no relaxation will be performed.
  No accuracy limit for integral partition fn. given. Defaulting to  0.1000E-14.
  No threshold value for u(r) in integrations given. Defaulting to  0.1000E-05.
  No occupation type (smearing scheme) given. Defaulting to Gaussian broadening, width =  0.1000E-01 eV.
  The width will be adjusted in iteration number     2 of the first full s.c.f. cycle only.
  S.C.F. convergence parameters will be adjusted in iteration number     2 of the first full s.c.f. cycle only.
  No accuracy for occupation numbers given. Defaulting to  0.1000E-12.
  No threshold value for occupation numbers given. Defaulting to  0.0000E+00.
  No accuracy for fermi level given. Defaulting to  0.1000E-19.
  Maximum # of iterations to find E_F not set. Defaulting to  200.
  Preferred method for the eigenvalue solver ('KS_method') not specified in 'control.in'.
  Defaulting to serial version, LAPACK (via ELSI), since more k-points than CPUs available.
  Will not use alltoall communication since running on < 1024 CPUs.
  Threshold for basis singularities not set.
  Default threshold for basis singularities:  0.1000E-04
  partition_type (choice of integration weights) for integrals was not specified.
  | Using a version of the partition function of Stratmann and coworkers ('stratmann_sparse').
  | At each grid point, the set of atoms used to build the partition table is smoothly restricted to
  | only those atoms whose free-atom density would be non-zero at that grid point.
  Partitioning for Hartree potential was not defined. Using partition_type for integrals.
  | Adjusted default value of keyword multip_moments_threshold to:       0.10000000E-11
  | This value may affect high angular momentum components of the Hartree potential in periodic systems.
  Angular momentum expansion for Kerker preconditioner not set explicitly.
  | Using default value of   0
  No explicit requirement for turning off preconditioner.
  | By default, it will be turned off when the charge convergence reaches
  | sc_accuracy_rho  =   0.100000E-06
  No special mixing parameter while Kerker preconditioner is on.
  Using default: charge_mix_param =     0.0500.
  No q(lm)/r^(l+1) cutoff set for long-range Hartree potential.
  | Using default value of  0.100000E-09 .
  | Verify using the multipole_threshold keyword.
  Defaulting to new monopole extrapolation.
  Density update method: automatic selection selected.
  Using density matrix based charge density update.
  Using density matrix based charge density update.
  Using packed matrix style: index .
  Defaulting to use time-reversal symmetry for k-point grid.
  Charge integration errors on the 3D integration grid will be compensated
  by explicit normalization and distribution of residual charges.
  Use the "compensate_multipole_errors" flag to change this behaviour.
  Set 'collect_eigenvectors' to be '.true.' for all serial calculations. This is mandatory.
  Set 'collect_eigenvectors' to be '.true.' for KS_method lapack_fast and serial.
 
  Consistency checks for the contents of geometry.in are next.
 

  Range separation radius for Ewald summation (hartree_convergence_parameter):      4.24762612 bohr.
  Number of empty states per atom not set in control.in - providing a guess from actual geometry.
  | Total number of empty states used during s.c.f. cycle:       69
  If you use a very high smearing, use empty_states (per atom!) in control.in to increase this value.

  Structure-dependent array size parameters: 
  | Maximum number of distinct radial functions  :       44
  | Maximum number of basis functions            :      777
  | Number of Kohn-Sham states (occupied + empty):      321
------------------------------------------------------------

------------------------------------------------------------
          Preparing all fixed parts of the calculation.
------------------------------------------------------------
  Determining machine precision:
    2.225073858507201E-308
  Setting up grids for atomic and cluster calculations.

  Creating wave function, potential, and density for free atoms.
  Runtime choices for atomic solver:
  | atomic solver xc        : PBE
  | compute density gradient: 1
  | compute kinetic density : F

  Species: Ba

  List of occupied orbitals and eigenvalues:
    n    l              occ      energy [Ha]    energy [eV]
    1    0           2.0000     -1428.759176    -38878.5153
    2    0           2.0000      -218.156321     -5936.3355
    3    0           2.0000       -45.759571     -1245.1813
    4    0           2.0000        -8.961354      -243.8508
    5    0           2.0000        -1.235311       -33.6145
    6    0           2.0000        -0.117372        -3.1939
    2    1           6.0000      -195.503522     -5319.9215
    3    1           6.0000       -38.566500     -1049.4479
    4    1           6.0000        -6.648037      -180.9023
    5    1           6.0000        -0.686503       -18.6807
    3    2          10.0000       -28.146810      -765.9137
    4    2          10.0000        -3.294406       -89.6453


  Species: Zr

  List of occupied orbitals and eigenvalues:
    n    l              occ      energy [Ha]    energy [eV]
    1    0           2.0000      -668.722933    -18196.8768
    2    0           2.0000       -91.076987     -2478.3309
    3    0           2.0000       -14.873383      -404.7254
    4    0           2.0000        -1.994212       -54.2653
    5    0           2.0000        -0.156460        -4.2575
    2    1           6.0000       -81.194469     -2209.4139
    3    1           6.0000       -11.667913      -317.5001
    4    1           6.0000        -1.184217       -32.2242
    3    2          10.0000        -6.414313      -174.5423
    4    2           2.0000        -0.125045        -3.4027


  Species: S

  List of occupied orbitals and eigenvalues:
    n    l              occ      energy [Ha]    energy [eV]
    1    0           2.0000       -88.680731     -2413.1255
    2    0           2.0000        -7.781719      -211.7513
    3    0           2.0000        -0.633662       -17.2428
    2    1           6.0000        -5.751976      -156.5192
    3    1           4.0000        -0.257086        -6.9957


  Adding cutoff potential to free-atom effective potential.
  Creating fixed part of basis set: Ionic, confined, hydrogenic.
 
  Ba                   ion:

  List of free ionic orbitals and eigenvalues:
    n    l      energy [Ha]    energy [eV]
    1    0     -1428.980456    -38884.5366
    2    0      -218.370478     -5942.1630
    3    0       -45.972614     -1250.9785
    4    0        -9.173714      -249.6295
    5    0        -1.445296       -39.3285
    6    0        -0.278663        -7.5828
    2    1      -195.717553     -5325.7456
    3    1       -38.779502     -1055.2439
    4    1        -6.860306      -186.6784
    5    1        -0.894905       -24.3516
    3    2       -28.359770      -771.7086
    4    2        -3.506466       -95.4158


  List of ionic basis orbitals and eigenvalues:
    n    l      energy [Ha]    energy [eV]    outer radius [A]
    5    2        -0.260030        -7.0758       7.007670
    4    3        -0.142743        -3.8842       7.093864

 
  Ba                   hydrogenic:
 
  List of hydrogenic basis orbitals: 
    n    l      effective z      eigenvalue [eV]  inner max. [A]     outer max. [A]     outer radius [A]   
    3    1         2.700000       -11.0183           0.585865           2.360755           7.358861
    4    0         3.300000        -9.1387           0.118110           3.896996           7.449375
    4    3         5.800000       -28.6057           1.465516           1.465516           5.905331
    5    4         7.400000       -29.8017           1.782126           1.782126           6.354768
 
 
  Zr                   ion:

  List of free ionic orbitals and eigenvalues:
    n    l      energy [Ha]    energy [eV]
    1    0      -669.421026    -18215.8729
    2    0       -91.769634     -2497.1788
    3    0       -15.560469      -423.4219
    4    0        -2.663352       -72.4735
    5    0        -0.640863       -17.4388
    2    1       -81.886574     -2228.2470
    3    1       -12.354892      -336.1937
    4    1        -1.844122       -50.1811
    3    2        -7.101714      -193.2475
    4    2        -0.726930       -19.7808


  List of ionic basis orbitals and eigenvalues:
    n    l      energy [Ha]    energy [eV]    outer radius [A]
    4    2        -0.726920       -19.7805       5.008334
    5    1        -0.469561       -12.7774       5.455794
    5    0        -0.640774       -17.4363       5.389503

 
  Zr                   hydrogenic:
 
  List of hydrogenic basis orbitals: 
    n    l      effective z      eigenvalue [eV]  inner max. [A]     outer max. [A]     outer radius [A]   
    4    3         7.200000       -44.0822           1.169212           1.169212           5.008334
    5    4        10.400000       -58.8635           1.273673           1.273673           4.887365
 
 
  S                    ion:

  List of free ionic orbitals and eigenvalues:
    n    l      energy [Ha]    energy [eV]
    1    0       -89.703778     -2440.9640
    2    0        -8.775428      -238.7916
    3    0        -1.470343       -40.0101
    2    1        -6.747660      -183.6132
    3    1        -1.048627       -28.5346


  List of ionic basis orbitals and eigenvalues:
    n    l      energy [Ha]    energy [eV]    outer radius [A]
    3    2        -0.495605       -13.4861       5.386362
    3    0        -1.470336       -40.0099       3.967934

 
  S                    hydrogenic:
 
  List of hydrogenic basis orbitals: 
    n    l      effective z      eigenvalue [eV]  inner max. [A]     outer max. [A]     outer radius [A]   
    2    1         1.800000       -11.0118           1.168531           1.168531           5.452614
    4    3         7.000000       -41.6672           1.212182           1.212182           5.066981
    4    2         6.200000       -32.6848           0.582121           1.814567           5.386362
    5    4        10.800000       -63.4785           1.227092           1.227092           4.766538
 
  Creating atomic-like basis functions for current effective potential.

  Species Ba                  :

  List of atomic basis orbitals and eigenvalues:
    n    l      energy [Ha]    energy [eV]    outer radius [A]
    1    0     -1428.759176    -38878.5153       0.181180
    2    0      -218.156321     -5936.3355       0.481781
    3    0       -45.759571     -1245.1813       1.053516
    4    0        -8.961354      -243.8508       2.303735
    5    0        -1.235311       -33.6145       5.905331
    6    0        -0.117372        -3.1939       7.358861
    2    1      -195.503522     -5319.9215       0.493705
    3    1       -38.566500     -1049.4479       1.119920
    4    1        -6.648037      -180.9023       2.603304
    5    1        -0.686503       -18.6807       6.838410
    3    2       -28.146810      -765.9137       1.250174
    4    2        -3.294406       -89.6453       3.490975


  Species Zr                  :

  List of atomic basis orbitals and eigenvalues:
    n    l      energy [Ha]    energy [eV]    outer radius [A]
    1    0      -668.722933    -18196.8768       0.259930
    2    0       -91.076987     -2478.3309       0.725827
    3    0       -14.873383      -404.7254       1.771771
    4    0        -1.994212       -54.2653       4.541709
    5    0        -0.156460        -4.2575       5.455794
    2    1       -81.194469     -2209.4139       0.743792
    3    1       -11.667913      -317.5001       1.930067
    4    1        -1.184217       -32.2242       5.008334
    3    2        -6.414313      -174.5423       2.434714
    4    2        -0.125045        -3.4027       5.389503


  Species S                   :

  List of atomic basis orbitals and eigenvalues:
    n    l      energy [Ha]    energy [eV]    outer radius [A]
    1    0       -88.680731     -2413.1255       0.682391
    2    0        -7.781719      -211.7513       2.289014
    3    0        -0.633662       -17.2428       5.256262
    2    1        -5.751976      -156.5192       2.555240
    3    1        -0.257086        -6.9957       5.386362

  Assembling full basis from fixed parts.
  | Species Ba :   atomic orbital   1 s accepted.
  | Species Ba :   atomic orbital   2 s accepted.
  | Species Ba :   atomic orbital   3 s accepted.
  | Species Ba :   atomic orbital   4 s accepted.
  | Species Ba :   atomic orbital   5 s accepted.
  | Species Ba :   atomic orbital   6 s accepted.
  | Species Ba :    hydro orbital   4 s accepted.
  | Species Ba :   atomic orbital   2 p accepted.
  | Species Ba :   atomic orbital   3 p accepted.
  | Species Ba :   atomic orbital   4 p accepted.
  | Species Ba :   atomic orbital   5 p accepted.
  | Species Ba :    hydro orbital   3 p accepted.
  | Species Ba :   atomic orbital   3 d accepted.
  | Species Ba :   atomic orbital   4 d accepted.
  | Species Ba :    ionic orbital   5 d accepted.
  | Species Ba :    hydro orbital   4 f accepted.
  | Species Ba :    ionic orbital   4 f accepted.
  | Species Ba :    hydro orbital   5 g accepted.
  | Species Zr :   atomic orbital   1 s accepted.
  | Species Zr :   atomic orbital   2 s accepted.
  | Species Zr :   atomic orbital   3 s accepted.
  | Species Zr :   atomic orbital   4 s accepted.
  | Species Zr :    ionic orbital   5 s accepted.
  | Species Zr :   atomic orbital   5 s accepted.
  | Species Zr :   atomic orbital   2 p accepted.
  | Species Zr :   atomic orbital   3 p accepted.
  | Species Zr :   atomic orbital   4 p accepted.
  | Species Zr :    ionic orbital   5 p accepted.
  | Species Zr :   atomic orbital   3 d accepted.
  | Species Zr :    ionic orbital   4 d accepted.
  | Species Zr :   atomic orbital   4 d accepted.
  | Species Zr :    hydro orbital   4 f accepted.
  | Species Zr :    hydro orbital   5 g accepted.
  | Species S :   atomic orbital   1 s accepted.
  | Species S :   atomic orbital   2 s accepted.
  | Species S :    ionic orbital   3 s accepted.
  | Species S :   atomic orbital   3 s accepted.
  | Species S :   atomic orbital   2 p accepted.
  | Species S :   atomic orbital   3 p accepted.
  | Species S :    hydro orbital   2 p accepted.
  | Species S :    ionic orbital   3 d accepted.
  | Species S :    hydro orbital   4 d accepted.
  | Species S :    hydro orbital   4 f accepted.
  | Species S :    hydro orbital   5 g accepted.
 
  Basis size parameters after reduction:
  | Total number of radial functions:       44
  | Total number of basis functions :      777
 
  Per-task memory consumption for arrays in subroutine allocate_ext:
  |          16.466864MB.
  Testing on-site integration grid accuracy.
  |  Species  Function  <phi|h_atom|phi> (log., in eV)  <phi|h_atom|phi> (rad., in eV)
           1        1             -38878.5152842456             -38878.5102682711
           1        2              -5936.3355416432              -5936.3354463181
           1        3              -1245.1812725370              -1245.1812651319
           1        4               -243.8508498583               -243.8508475766
           1        5                -33.6145129113                -33.6145123744
           1        6                 -3.1953474132                 -3.1940995993
           1        7                  1.7217240859                  1.7400532086
           1        8              -5319.9215180603              -5319.9215128547
           1        9              -1049.4478540965              -1049.4478516474
           1       10               -180.9022912879               -180.9022896989
           1       11                -18.6806852844                -18.6806849603
           1       12                 -0.6584997172                 -0.6579606663
           1       13               -765.9136710812               -765.9136703559
           1       14                -89.6453457527                -89.6453448903
           1       15                 -1.8801763382                 -1.8802515933
           1       16                  8.1569476582                  8.1569486797
           1       17                  8.6054070843                  8.6053383614
           1       18                 17.5600091881                 17.5599879188
           2       19             -18196.8768435665             -18196.8755705220
           2       20              -2478.3309144498              -2478.3308916069
           2       21               -404.7253557491               -404.7253534742
           2       22                -54.2652640714                -54.2652635286
           2       23                 -3.7119764275                 -3.7119846577
           2       24                  4.5875772639                  4.5868905659
           2       25              -2209.4139097225              -2209.4139071812
           2       26               -317.5000788444               -317.5000777556
           2       27                -32.2241784576                -32.2241781542
           2       28                 -0.3319152745                 -0.3319660629
           2       29               -174.5423275335               -174.5423272575
           2       30                 -3.0504029429                 -3.0504025329
           2       31                  4.9970437712                  4.9966978803
           2       32                 16.8632595236                 16.8632598612
           2       33                 37.0867992037                 37.0867988501
           3       34              -2413.1254568977              -2413.1254096663
           3       35               -211.7513411281               -211.7513404762
           3       36                -16.9725280787                -16.9725279206
           3       37                  7.6024436204                  7.6024549059
           3       38               -156.5192206929               -156.5192205451
           3       39                 -6.9959757887                 -6.9959777655
           3       40                  6.8896462808                  6.8895564741
           3       41                  6.0214250550                  6.0214220200
           3       42                 19.6206468977                 19.6206494558
           3       43                 24.7008710786                 24.7008710738
           3       44                 47.5292252001                 47.5292260486

  Preparing densities etc. for the partition functions (integrals / Hartree potential).

  Preparations completed.
  max(cpu_time)          :      0.847 s.
  Wall clock time (cpu1) :      0.866 s.
------------------------------------------------------------

  Initializing index lists of integration centers etc. from given atomic structure:
  Mapping all atomic coordinates to central unit cell.

  Initializing the k-points
  Using symmetry for reducing the k-points
  | k-points reduced from:      576 to      292
  | Number of k-points                             :       292
  The eigenvectors in the calculations are COMPLEX.
  | K-points in task   0:         7
  | K-points in task   1:         8
  | K-points in task   2:         8
  | K-points in task   3:         8
  | K-points in task   4:         8
  | K-points in task   5:         8
  | K-points in task   6:         8
  | K-points in task   7:         8
  | K-points in task   8:         8
  | K-points in task   9:         8
  | K-points in task  10:         8
  | K-points in task  11:         8
  | K-points in task  12:         8
  | K-points in task  13:         7
  | K-points in task  14:         7
  | K-points in task  15:         7
  | K-points in task  16:         7
  | K-points in task  17:         7
  | K-points in task  18:         7
  | K-points in task  19:         7
  | K-points in task  20:         7
  | K-points in task  21:         7
  | K-points in task  22:         7
  | K-points in task  23:         7
  | K-points in task  24:         7
  | K-points in task  25:         7
  | K-points in task  26:         7
  | K-points in task  27:         7
  | K-points in task  28:         7
  | K-points in task  29:         7
  | K-points in task  30:         7
  | K-points in task  31:         7
  | K-points in task  32:         7
  | K-points in task  33:         7
  | K-points in task  34:         7
  | K-points in task  35:         7
  | K-points in task  36:         7
  | K-points in task  37:         7
  | K-points in task  38:         7
  | K-points in task  39:         7
  | Number of basis functions in the Hamiltonian integrals :     15881
  | Number of basis functions in a single unit cell        :       777
  | Number of centers in hartree potential         :      2279
  | Number of centers in hartree multipole         :      1465
  | Number of centers in electron density summation:      1147
  | Number of centers in basis integrals           :      1259
  | Number of centers in integrals                 :       497
  | Number of centers in hamiltonian               :      1591
  | Consuming        821 KiB for k_phase.
  | Number of super-cells (origin) [n_cells]                     :        1573
  | Number of super-cells (after PM_index) [n_cells]             :         180
  | Number of super-cells in hamiltonian [n_cells_in_hamiltonian]:         180
  | Size of matrix packed + index [n_hamiltonian_matrix_size] :     3129084

------------------------------------------------------------
          Begin self-consistency loop: Initialization.

          Date     :  20230627, Time     :  184340.267
------------------------------------------------------------
  | Estimated reciprocal-space cutoff momentum G_max:         2.27384078 bohr^-1 .
  | Reciprocal lattice points for long-range Hartree potential:     596
  Partitioning the integration grid into batches with parallel hashing+maxmin method.
  | Number of batches:     5258
  | Maximal batch size:     136
  | Minimal batch size:      52
  | Average batch size:      82.661
  | Standard deviation of batch sizes:      21.532

  Integration load balanced across    40 MPI tasks.
  Work distribution over tasks is as follows:
  Task     0 has      10831 integration points.
  Task     1 has      10875 integration points.
  Task     2 has      10866 integration points.
  Task     3 has      10874 integration points.
  Task     4 has      10878 integration points.
  Task     5 has      10899 integration points.
  Task     6 has      10877 integration points.
  Task     7 has      10905 integration points.
  Task     8 has      10844 integration points.
  Task     9 has      10907 integration points.
  Task    10 has      10837 integration points.
  Task    11 has      10883 integration points.
  Task    12 has      10846 integration points.
  Task    13 has      10847 integration points.
  Task    14 has      10877 integration points.
  Task    15 has      10852 integration points.
  Task    16 has      10863 integration points.
  Task    17 has      10887 integration points.
  Task    18 has      10834 integration points.
  Task    19 has      10884 integration points.
  Task    20 has      10830 integration points.
  Task    21 has      10902 integration points.
  Task    22 has      10842 integration points.
  Task    23 has      10872 integration points.
  Task    24 has      10890 integration points.
  Task    25 has      10907 integration points.
  Task    26 has      10838 integration points.
  Task    27 has      10854 integration points.
  Task    28 has      10835 integration points.
  Task    29 has      10831 integration points.
  Task    30 has      10833 integration points.
  Task    31 has      10879 integration points.
  Task    32 has      10911 integration points.
  Task    33 has      10863 integration points.
  Task    34 has      10879 integration points.
  Task    35 has      10870 integration points.
  Task    36 has      10833 integration points.
  Task    37 has      10839 integration points.
  Task    38 has      10886 integration points.
  Task    39 has      10870 integration points.
  Initializing partition tables, free-atom densities, potentials, etc. across the integration grid (initialize_grid_storage).
  | initialize_grid_storage: Actual outermost partition radius vs. multipole_radius_free
  | (-- VB: in principle, multipole_radius_free should be larger, hence this output)
  | Species        1: Confinement radius =              8.000000000000000 AA, multipole_radius_free =              8.016324652127386 AA.
  | Species        1: outer_partition_radius set to              8.016324652127386 AA .
  | Species        2: Confinement radius =              6.000000000000000 AA, multipole_radius_free =              6.016333975203386 AA.
  | Species        2: outer_partition_radius set to              6.016333975203386 AA .
  | Species        3: Confinement radius =              6.000000000000000 AA, multipole_radius_free =              6.012827091137924 AA.
  | Species        3: outer_partition_radius set to              6.012827091137924 AA .
  | The sparse table of interatomic distances needs       5991.12 kbyte instead of     12680.65 kbyte of memory.
  | Net number of integration points:   434630
  | of which are non-zero points    :   358140
  | Numerical average free-atom electrostatic potential    :    -16.87700530 eV
  Renormalizing the initial density to the exact electron count on the 3D integration grid.
  | Initial density: Formal number of electrons (from input files) :     504.0000000000
  | Integrated number of electrons on 3D grid     :     504.0022768021
  | Charge integration error                      :       0.0022768021
  | Normalization factor for density and gradient :       0.9999954826
  Renormalizing the free-atom superposition density to the exact electron count on the 3D integration grid.
  | Formal number of electrons (from input files) :     504.0000000000
  | Integrated number of electrons on 3D grid     :     504.0022768021
  | Charge integration error                      :       0.0022768021
  | Normalization factor for density and gradient :       0.9999954826
  Obtaining max. number of non-zero basis functions in each batch (get_n_compute_maxes).
  | Maximal number of non-zero basis functions:     1561 in task     0
  | Maximal number of non-zero basis functions:     1536 in task     1
  | Maximal number of non-zero basis functions:     1543 in task     2
  | Maximal number of non-zero basis functions:     1533 in task     3
  | Maximal number of non-zero basis functions:     1504 in task     4
  | Maximal number of non-zero basis functions:     1490 in task     5
  | Maximal number of non-zero basis functions:     1597 in task     6
  | Maximal number of non-zero basis functions:     1537 in task     7
  | Maximal number of non-zero basis functions:     1498 in task     8
  | Maximal number of non-zero basis functions:     1535 in task     9
  | Maximal number of non-zero basis functions:     1532 in task    10
  | Maximal number of non-zero basis functions:     1517 in task    11
  | Maximal number of non-zero basis functions:     1537 in task    12
  | Maximal number of non-zero basis functions:     1532 in task    13
  | Maximal number of non-zero basis functions:     1541 in task    14
  | Maximal number of non-zero basis functions:     1500 in task    15
  | Maximal number of non-zero basis functions:     1559 in task    16
  | Maximal number of non-zero basis functions:     1532 in task    17
  | Maximal number of non-zero basis functions:     1597 in task    18
  | Maximal number of non-zero basis functions:     1521 in task    19
  | Maximal number of non-zero basis functions:     1585 in task    20
  | Maximal number of non-zero basis functions:     1545 in task    21
  | Maximal number of non-zero basis functions:     1505 in task    22
  | Maximal number of non-zero basis functions:     1528 in task    23
  | Maximal number of non-zero basis functions:     1504 in task    24
  | Maximal number of non-zero basis functions:     1532 in task    25
  | Maximal number of non-zero basis functions:     1481 in task    26
  | Maximal number of non-zero basis functions:     1532 in task    27
  | Maximal number of non-zero basis functions:     1476 in task    28
  | Maximal number of non-zero basis functions:     1603 in task    29
  | Maximal number of non-zero basis functions:     1475 in task    30
  | Maximal number of non-zero basis functions:     1506 in task    31
  | Maximal number of non-zero basis functions:     1536 in task    32
  | Maximal number of non-zero basis functions:     1545 in task    33
  | Maximal number of non-zero basis functions:     1533 in task    34
  | Maximal number of non-zero basis functions:     1541 in task    35
  | Maximal number of non-zero basis functions:     1493 in task    36
  | Maximal number of non-zero basis functions:     1519 in task    37
  | Maximal number of non-zero basis functions:     1520 in task    38
  | Maximal number of non-zero basis functions:     1597 in task    39
  Allocating       26.641 MB for KS_eigenvector_complex
  Integrating Hamiltonian matrix: batch-based integration.
  Time summed over all CPUs for integration: real work      183.514 s, elapsed      186.944 s
  Integrating overlap matrix.
  Time summed over all CPUs for integration: real work      143.288 s, elapsed      146.091 s
  Decreasing sparse matrix size:
  | Tolerance:  0.1000E-12
  Hamiltonian matrix
  | Array has  2205934 nonzero elements out of  3129084 elements
  | Sparsity factor is 0.295
  Overlap matrix
  | Array has  2051887 nonzero elements out of  3129084 elements
  | Sparsity factor is 0.344
  New size of hamiltonian matrix:     2220127

  Updating Kohn-Sham eigenvalues and eigenvectors using ELSI and the (modified) LAPACK eigensolver.
  Singularity check in k-point 40, task 0 (analysis for other k-points/tasks may follow below):
  Overlap matrix is not singular
  | Lowest and highest eigenvalues :  0.1949E-03,  0.7235E+01
  Finished singularity check of overlap matrix
  | Time :     0.467 s
  Starting LAPACK eigensolver
  Finished Cholesky decomposition
  | Time :     0.039 s
  Finished transformation to standard eigenproblem
  | Time :     0.070 s
  Finished solving standard eigenproblem
  | Time :     0.470 s
  Finished back-transformation of eigenvectors
  | Time :     0.027 s

  Obtaining occupation numbers and electronic chemical potential using ELSI.
  | Note that, for insulating systems, the printed 'chemical potential' value is not uniquely defined.
  | It can be anywhere in the energy gap, as long as it correctly separates occupied and unoccupied states.
  | In systems with a gap, the physically relevant chemical potential is the VBM or HOMO.

  | Chemical potential (Fermi level):    -8.16094556 eV
  Writing Kohn-Sham eigenvalues.
  K-point:       1 at    0.000000    0.000000    0.000000 (in units of recip. lattice)

  State    Occupation    Eigenvalue [Ha]    Eigenvalue [eV]
      1       2.00000       -1428.045493       -38859.09499
      2       2.00000       -1428.045493       -38859.09499
      3       2.00000       -1428.044856       -38859.07767
      4       2.00000       -1428.044856       -38859.07767
      5       2.00000        -668.265387       -18184.42638
      6       2.00000        -668.265387       -18184.42638
      7       2.00000        -668.264591       -18184.40473
      8       2.00000        -218.054519        -5933.56535
      9       2.00000        -218.054519        -5933.56535
     10       2.00000        -218.053878        -5933.54792
     11       2.00000        -218.053878        -5933.54792
     12       2.00000        -195.440979        -5318.21962
     13       2.00000        -195.440979        -5318.21962
     14       2.00000        -195.440977        -5318.21957
     15       2.00000        -195.440977        -5318.21957
     16       2.00000        -195.440977        -5318.21957
     17       2.00000        -195.440977        -5318.21957
     18       2.00000        -195.440339        -5318.20220
     19       2.00000        -195.440339        -5318.20220
     20       2.00000        -195.440337        -5318.20217
     21       2.00000        -195.440337        -5318.20217
     22       2.00000        -195.440337        -5318.20217
     23       2.00000        -195.440337        -5318.20217
     24       2.00000         -91.028548        -2477.01283
     25       2.00000         -91.028548        -2477.01282
     26       2.00000         -91.027752        -2476.99116
     27       2.00000         -88.558417        -2409.79712
     28       2.00000         -88.558417        -2409.79712
     29       2.00000         -88.558416        -2409.79712
     30       2.00000         -88.558416        -2409.79712
     31       2.00000         -88.556054        -2409.73284
     32       2.00000         -88.556054        -2409.73284
     33       2.00000         -88.549718        -2409.56042
     34       2.00000         -88.549718        -2409.56042
     35       2.00000         -88.549232        -2409.54719
     36       2.00000         -88.549231        -2409.54718
     37       2.00000         -81.169049        -2208.72219
     38       2.00000         -81.169049        -2208.72219
     39       2.00000         -81.169049        -2208.72219
     40       2.00000         -81.169049        -2208.72219
     41       2.00000         -81.169037        -2208.72188
     42       2.00000         -81.169037        -2208.72188
     43       2.00000         -81.168250        -2208.70046
     44       2.00000         -81.168250        -2208.70046
     45       2.00000         -81.168246        -2208.70035
     46       2.00000         -45.729639        -1244.36679
     47       2.00000         -45.729639        -1244.36679
     48       2.00000         -45.728972        -1244.34865
     49       2.00000         -45.728972        -1244.34864
     50       2.00000         -38.549776        -1048.99278
     51       2.00000         -38.549776        -1048.99278
     52       2.00000         -38.549759        -1048.99231
     53       2.00000         -38.549759        -1048.99231
     54       2.00000         -38.549759        -1048.99231
     55       2.00000         -38.549759        -1048.99231
     56       2.00000         -38.549105        -1048.97451
     57       2.00000         -38.549104        -1048.97450
     58       2.00000         -38.549094        -1048.97422
     59       2.00000         -38.549094        -1048.97422
     60       2.00000         -38.549094        -1048.97422
     61       2.00000         -38.549094        -1048.97422
     62       2.00000         -28.140449         -765.74058
     63       2.00000         -28.140449         -765.74058
     64       2.00000         -28.140446         -765.74049
     65       2.00000         -28.140446         -765.74049
     66       2.00000         -28.140446         -765.74049
     67       2.00000         -28.140446         -765.74049
     68       2.00000         -28.140436         -765.74021
     69       2.00000         -28.140436         -765.74021
     70       2.00000         -28.140435         -765.74021
     71       2.00000         -28.140435         -765.74021
     72       2.00000         -28.139784         -765.72248
     73       2.00000         -28.139784         -765.72248
     74       2.00000         -28.139782         -765.72242
     75       2.00000         -28.139782         -765.72242
     76       2.00000         -28.139782         -765.72242
     77       2.00000         -28.139782         -765.72242
     78       2.00000         -28.139775         -765.72225
     79       2.00000         -28.139775         -765.72225
     80       2.00000         -28.139775         -765.72224
     81       2.00000         -28.139775         -765.72224
     82       2.00000         -14.869533         -404.62057
     83       2.00000         -14.869533         -404.62057
     84       2.00000         -14.868736         -404.59888
     85       2.00000         -11.673157         -317.64276
     86       2.00000         -11.673157         -317.64276
     87       2.00000         -11.673157         -317.64276
     88       2.00000         -11.673157         -317.64276
     89       2.00000         -11.673036         -317.63947
     90       2.00000         -11.673036         -317.63946
     91       2.00000         -11.672334         -317.62036
     92       2.00000         -11.672334         -317.62036
     93       2.00000         -11.672291         -317.61921
     94       2.00000          -8.951807         -243.59106
     95       2.00000          -8.951807         -243.59105
     96       2.00000          -8.951004         -243.56920
     97       2.00000          -8.951003         -243.56919
     98       2.00000          -7.817188         -212.71650
     99       2.00000          -7.817187         -212.71649
    100       2.00000          -7.817187         -212.71649
    101       2.00000          -7.817187         -212.71649
    102       2.00000          -7.814743         -212.64998
    103       2.00000          -7.814743         -212.64998
    104       2.00000          -7.807558         -212.45447
    105       2.00000          -7.807557         -212.45444
    106       2.00000          -7.807554         -212.45434
    107       2.00000          -7.807553         -212.45432
    108       2.00000          -6.642303         -180.74626
    109       2.00000          -6.642303         -180.74626
    110       2.00000          -6.642189         -180.74317
    111       2.00000          -6.642189         -180.74317
    112       2.00000          -6.642189         -180.74317
    113       2.00000          -6.642189         -180.74317
    114       2.00000          -6.641442         -180.72284
    115       2.00000          -6.641442         -180.72284
    116       2.00000          -6.641376         -180.72103
    117       2.00000          -6.641376         -180.72103
    118       2.00000          -6.641376         -180.72102
    119       2.00000          -6.641376         -180.72102
    120       2.00000          -6.429657         -174.95986
    121       2.00000          -6.429657         -174.95986
    122       2.00000          -6.429585         -174.95790
    123       2.00000          -6.429585         -174.95790
    124       2.00000          -6.429539         -174.95665
    125       2.00000          -6.429538         -174.95664
    126       2.00000          -6.429499         -174.95557
    127       2.00000          -6.429499         -174.95557
    128       2.00000          -6.429499         -174.95557
    129       2.00000          -6.429499         -174.95557
    130       2.00000          -6.428825         -174.93723
    131       2.00000          -6.428784         -174.93611
    132       2.00000          -6.428749         -174.93517
    133       2.00000          -6.428720         -174.93436
    134       2.00000          -6.428720         -174.93436
    135       2.00000          -5.798302         -157.77982
    136       2.00000          -5.798302         -157.77982
    137       2.00000          -5.798302         -157.77982
    138       2.00000          -5.798302         -157.77982
    139       2.00000          -5.795963         -157.71619
    140       2.00000          -5.795963         -157.71619
    141       2.00000          -5.795802         -157.71179
    142       2.00000          -5.795802         -157.71179
    143       2.00000          -5.795802         -157.71179
    144       2.00000          -5.795802         -157.71179
    145       2.00000          -5.795644         -157.70749
    146       2.00000          -5.795643         -157.70748
    147       2.00000          -5.795643         -157.70747
    148       2.00000          -5.795643         -157.70747
    149       2.00000          -5.793277         -157.64309
    150       2.00000          -5.793277         -157.64309
    151       2.00000          -5.793205         -157.64112
    152       2.00000          -5.793204         -157.64110
    153       2.00000          -5.788645         -157.51705
    154       2.00000          -5.788645         -157.51704
    155       2.00000          -5.788391         -157.51012
    156       2.00000          -5.788390         -157.51011
    157       2.00000          -5.786368         -157.45508
    158       2.00000          -5.786368         -157.45508
    159       2.00000          -5.786368         -157.45507
    160       2.00000          -5.786368         -157.45507
    161       2.00000          -5.786178         -157.44992
    162       2.00000          -5.786178         -157.44992
    163       2.00000          -5.786178         -157.44992
    164       2.00000          -5.786178         -157.44992
    165       2.00000          -3.294744          -89.65455
    166       2.00000          -3.294744          -89.65455
    167       2.00000          -3.294701          -89.65337
    168       2.00000          -3.294701          -89.65337
    169       2.00000          -3.294701          -89.65337
    170       2.00000          -3.294701          -89.65337
    171       2.00000          -3.294597          -89.65055
    172       2.00000          -3.294597          -89.65055
    173       2.00000          -3.294587          -89.65029
    174       2.00000          -3.294587          -89.65028
    175       2.00000          -3.293811          -89.62917
    176       2.00000          -3.293811          -89.62917
[...]
    618       0.00000                       1.152589           1.166037             0.000000
    619       0.00000                       1.201892           1.203282             0.037245
    620       0.00000                       1.201892           1.203282             0.000000
    621       0.00000                       1.201892           1.208268             0.004986
    622       0.00000                       1.201892           1.208268             0.000000
    623       0.00000                       1.227266           1.222535             0.014268
    624       0.00000                       1.227266           1.222535             0.000000
    625       0.00000                       1.228798           1.229081             0.006545
    626       0.00000                       1.228798           1.229081             0.000000
    627       0.00000                       1.240314           1.277641             0.048560
    628       0.00000                       1.240314           1.277641             0.000000
    629       0.00000                       1.293403           1.291820             0.014178
    630       0.00000                       1.293403           1.291820             0.000000
    631       0.00000                       1.293403           1.293914             0.002094
    632       0.00000                       1.293403           1.293914             0.000000
    633       0.00000                       1.370838           1.330625             0.036711
    634       0.00000                       1.370838           1.330625             0.000000
    635       0.00000                       1.370838           1.435784             0.105159
    636       0.00000                       1.370838           1.435784             0.000000
    637       0.00000                       1.456297           1.471542             0.035758
    638       0.00000                       1.456297           1.471542             0.000000
    639       0.00000                       1.463560           1.480362             0.008820
    640       0.00000                       1.463560           1.480362             0.000000
    641       0.00000                       1.463560           1.491577             0.011216
    642       0.00000                       1.463560           1.491577             0.000000

  What follows are estimated values for band gap, HOMO, LUMO, etc.
  | They are estimated on a discrete k-point grid and not necessarily exact.
  | For converged numbers, create a DOS and/or band structure plot on a denser k-grid.

  Highest occupied state (VBM) at     -7.44081112 eV (relative to internal zero)
  | Occupation number:      0.99999989
  | K-point:       3 at    0.000000    0.000000    0.500000 (in units of recip. lattice)

  Lowest unoccupied state (CBM) at    -7.13946418 eV (relative to internal zero)
  | Occupation number:      0.00000000
  | K-point:       1 at    0.000000    0.000000    0.000000 (in units of recip. lattice)

  ESTIMATED overall HOMO-LUMO gap:      0.30134695 eV between HOMO at k-point 3 and LUMO at k-point 1
  | This appears to be an indirect band gap.
  | Smallest direct gap :      0.55516100 eV for k_point 1 at    0.000000    0.000000    0.000000 (in units of recip. lattice)
  The gap value is above 0.2 eV. Unless you are using a very sparse k-point grid,
  this system is most likely an insulator or a semiconductor.

  Spin-orbit coupling                                     :  max(cpu_time)    wall_clock(cpu1)
  | Computing matrix elements for SOC operator            :         36.357              36.365
  | Constructing second-variational Hamiltonian           :          3.119               3.122
  | Diagonalizing second-variational Hamiltonian          :          4.496               4.496
  | Syncing data and calculating occupations              :          1.046               1.036
  | Writing out data, calculating band gaps, etc.         :          0.003               0.003
  | Total SOC time                                        :         45.024              45.032

  Partial memory accounting:
  | Current value for overall tracked memory usage:
  |   Minimum:       71.849 MB (on task  0)
  |   Maximum:       75.655 MB (on task  1)
  |   Average:       72.991 MB
  | Peak value for overall tracked memory usage:
  |   Minimum:      171.034 MB (on task 30 after allocating potential_shell)
  |   Maximum:      178.089 MB (on task  6 after allocating potential_shell)
  |   Average:      173.663 MB
  | Largest tracked array allocation so far:
  |   Minimum:       50.815 MB (soc_matrix on task  0)
  |   Maximum:       50.815 MB (soc_matrix on task  0)
  |   Average:       50.815 MB
  Note:  These values currently only include a subset of arrays which are explicitly tracked.
  The "true" memory usage will be greater.
 ------------------------------------------------------------

  -------------------------------------------------------------------
  Writing the requested band structure output (LAPACK version):
  -------------------------------------------------------------------

  Integrating Hamiltonian matrix: batch-based integration.
  Time summed over all CPUs for integration: real work      169.256 s, elapsed      172.944 s
  Integrating SOC matrix: batch-based integration p2 version.
  Allocating        0.516 MB for dist_tab
  Allocating        0.516 MB for dist_tab_sq
  Allocating        1.547 MB for dir_tab
  Allocating        0.083 MB for i_basis_fns
  Allocating        4.488 MB for i_basis_fns_inv
  Allocating        0.083 MB for i_atom_fns
  Allocating        4.859 MB for gradient_basis_wave
  Allocating        0.010 MB for ylm_tab
  Allocating        0.003 MB for radial_wave
  Allocating        0.003 MB for radial_wave_deriv
  Allocating        0.061 MB for i_basis
  Allocating       18.591 MB for soc_shell
  Allocating        0.031 MB for cartesians
  Allocating        0.031 MB for sum_gradient
  Allocating        0.063 MB for sum_hessian
  Allocating        0.001 MB for potential_shell

  Treating all   46 k-points in band plot segment #   1:

  Overlap matrix is not singular
  | Lowest and highest eigenvalues :  0.7976E-04,  0.6509E+01
  Finished singularity check of overlap matrix
  | Time :     0.448 s
  Starting LAPACK eigensolver
  Finished Cholesky decomposition
  | Time :     0.040 s
  Finished transformation to standard eigenproblem
  | Time :     0.072 s
  Finished solving standard eigenproblem
  | Time :     0.469 s
  Finished back-transformation of eigenvectors
  | Time :     0.019 s

  Scalar-relativistic "band gap" along reciprocal space direction number:    1
  | Lowest unoccupied state:      -7.13817290 eV
  | Highest occupied state :      -7.44413452 eV
  | Energy difference      :       0.30596162 eV


Spin-orbit-coupled "band gap" along reciprocal space direction number:    1
  | Lowest unoccupied state:      -7.13946418 eV
  | Highest occupied state :      -7.44081138 eV
  | Energy difference      :       0.30134720 eV


  Treating all    2 k-points in band plot segment #   2:


  Scalar-relativistic "band gap" along reciprocal space direction number:    2
  | Lowest unoccupied state:      -4.48075416 eV
  | Highest occupied state :      -7.44413452 eV
  | Energy difference      :       2.96338036 eV


Spin-orbit-coupled "band gap" along reciprocal space direction number:    2
  | Lowest unoccupied state:      -4.48311759 eV
  | Highest occupied state :      -7.44081138 eV
  | Energy difference      :       2.95769379 eV


  Treating all   32 k-points in band plot segment #   3:


  Scalar-relativistic "band gap" along reciprocal space direction number:    3
  | Lowest unoccupied state:      -6.18435980 eV
  | Highest occupied state :      -7.44463861 eV
  | Energy difference      :       1.26027882 eV


Spin-orbit-coupled "band gap" along reciprocal space direction number:    3
  | Lowest unoccupied state:      -6.18470288 eV
  | Highest occupied state :      -7.44135920 eV
  | Energy difference      :       1.25665632 eV


  Treating all   33 k-points in band plot segment #   4:


  Scalar-relativistic "band gap" along reciprocal space direction number:    4
  | Lowest unoccupied state:      -7.13817290 eV
  | Highest occupied state :      -7.53443644 eV
  | Energy difference      :       0.39626354 eV


Spin-orbit-coupled "band gap" along reciprocal space direction number:    4
  | Lowest unoccupied state:      -7.13946418 eV
  | Highest occupied state :      -7.53325357 eV
  | Energy difference      :       0.39378940 eV


  Treating all    9 k-points in band plot segment #   5:


  Scalar-relativistic "band gap" along reciprocal space direction number:    5
  | Lowest unoccupied state:      -7.13817290 eV
  | Highest occupied state :      -7.75321102 eV
  | Energy difference      :       0.61503812 eV


Spin-orbit-coupled "band gap" along reciprocal space direction number:    5
  | Lowest unoccupied state:      -7.13946418 eV
  | Highest occupied state :      -7.69462518 eV
  | Energy difference      :       0.55516100 eV


  Treating all   32 k-points in band plot segment #   6:


  Scalar-relativistic "band gap" along reciprocal space direction number:    6
  | Lowest unoccupied state:      -7.13324050 eV
  | Highest occupied state :      -7.53443644 eV
  | Energy difference      :       0.40119595 eV


Spin-orbit-coupled "band gap" along reciprocal space direction number:    6
  | Lowest unoccupied state:      -7.13420002 eV
  | Highest occupied state :      -7.53325357 eV
  | Energy difference      :       0.39905355 eV


  Treating all    5 k-points in band plot segment #   7:


  Scalar-relativistic "band gap" along reciprocal space direction number:    7
  | Lowest unoccupied state:      -6.18872196 eV
  | Highest occupied state :      -7.53443644 eV
  | Energy difference      :       1.34571449 eV


Spin-orbit-coupled "band gap" along reciprocal space direction number:    7
  | Lowest unoccupied state:      -6.18906489 eV
  | Highest occupied state :      -7.53325357 eV
  | Energy difference      :       1.34418869 eV


  Treating all   32 k-points in band plot segment #   8:


  Scalar-relativistic "band gap" along reciprocal space direction number:    8
  | Lowest unoccupied state:      -6.18872196 eV
  | Highest occupied state :      -7.49918814 eV
  | Energy difference      :       1.31046619 eV


Spin-orbit-coupled "band gap" along reciprocal space direction number:    8
  | Lowest unoccupied state:      -6.18906489 eV
  | Highest occupied state :      -7.48660007 eV
  | Energy difference      :       1.29753518 eV


  Treating all    5 k-points in band plot segment #   9:


  Scalar-relativistic "band gap" along reciprocal space direction number:    9
  | Lowest unoccupied state:      -4.48075416 eV
  | Highest occupied state :      -7.44463861 eV
  | Energy difference      :       2.96388445 eV


Spin-orbit-coupled "band gap" along reciprocal space direction number:    9
  | Lowest unoccupied state:      -4.48311704 eV
  | Highest occupied state :      -7.44135893 eV
  | Energy difference      :       2.95824189 eV


  Treating all   45 k-points in band plot segment #  10:


  Scalar-relativistic "band gap" along reciprocal space direction number:   10
  | Lowest unoccupied state:      -7.13324050 eV
  | Highest occupied state :      -7.44463861 eV
  | Energy difference      :       0.31139811 eV


Spin-orbit-coupled "band gap" along reciprocal space direction number:   10
  | Lowest unoccupied state:      -7.13420002 eV
  | Highest occupied state :      -7.44135893 eV
  | Energy difference      :       0.30715891 eV


  Treating all    5 k-points in band plot segment #  11:


  Scalar-relativistic "band gap" along reciprocal space direction number:   11
  | Lowest unoccupied state:      -4.47665814 eV
  | Highest occupied state :      -7.44413452 eV
  | Energy difference      :       2.96747638 eV


Spin-orbit-coupled "band gap" along reciprocal space direction number:   11
  | Lowest unoccupied state:      -4.47896957 eV
  | Highest occupied state :      -7.44081138 eV
  | Energy difference      :       2.96184181 eV

  Scalar-relativistic "band gap" of total set of bands:
  | Lowest unoccupied state:      -7.13817290 eV
  | Highest occupied state :      -7.44413452 eV
  | Energy difference      :       0.30596162 eV

  Spin-orbit-coupled "band gap" of total set of bands:
  | Lowest unoccupied state:      -7.13946418 eV
  | Highest occupied state :      -7.44081138 eV
  | Energy difference      :       0.30134720 eV


  Band Structure                                          :  max(cpu_time) wall_clock(cpu1)
  | Total Time                                            :         64.125           64.223
------------------------------------------------------------

------------------------------------------------------------------------------
  Final output of selected total energy values:

  The following output summarizes some interesting total energy values
  at the end of a run (AFTER all relaxation, molecular dynamics, etc.).

  | Total energy of the DFT / Hartree-Fock s.c.f. calculation      :       -1305071.777223985 eV
  | Final zero-broadening corrected energy (caution - metals only) :       -1305071.777223985 eV
  | Total energy after non-SC SOC correction (DO NOT USE)          :       -1305072.227918868 eV
  | For reference only, the value of 1 Hartree used in FHI-aims is :             27.211384500 eV
  | For reference only, the overall average (free atom contribution
  | + realspace contribution) of the electrostatic potential after
  | s.c.f. convergence is                                          :            -16.530096523 eV

  Before relying on these values, please be sure to understand exactly which
  total energy value is referred to by a given number. Different objects may
  all carry the same name 'total energy'. Definitions:

  Total energy of the DFT / Hartree-Fock s.c.f. calculation:
  | Note that this energy does not include ANY quantities calculated after the
  | s.c.f. cycle, in particular not ANY RPA, MP2, etc. many-body perturbation terms.

  Final zero-broadening corrected energy:
  | For metallic systems only, a broadening of the occupation numbers at the Fermi
  | level can be extrapolated back to zero broadening by an electron-gas inspired
  | formula. For all systems that are not real metals, this value can be
  | meaningless and should be avoided.

------------------------------------------------------------------------------
  Methods described in the following list of references were used in this FHI-aims run.
  If you publish the results, please make sure to cite these reference if they apply.
  FHI-aims is an academic code, and for our developers (often, Ph.D. students
  and postdocs), scientific credit in the community is essential.
  Thank you for helping us!

  For any use of FHI-aims, please cite:

    Volker Blum, Ralf Gehrke, Felix Hanke, Paula Havu, Ville Havu,
    Xinguo Ren, Karsten Reuter, and Matthias Scheffler
    'Ab initio molecular simulations with numeric atom-centered orbitals'
    Computer Physics Communications 180, 2175-2196 (2009)
    http://doi.org/10.1016/j.cpc.2009.06.022


  The provided symmetry information was generated with SPGlib:

    Atsushi Togo, Yusuke Seto, Dimitar Pashov
    SPGlib 1.7.3 obtained from http://spglib.sourceforge.net
    Copyright (C) 2008 Atsushi Togo


  For second-variational spin-orbit coupling used in your run, please cite:

    William P. Huhn and Volker Blum,
    'One-hundred-three compound band-structure benchmark of post-self-consistent'
    'spin-orbit coupling treatments in density functional theory'
    Phys. Rev. Materials 1, 033803 (2017).


  The ELSI infrastructure was used in your run to solve the Kohn-Sham electronic structure.
  Please check out http://elsi-interchange.org to learn more.
  If scalability is important for your project, please acknowledge ELSI by citing:

    V. W-z. Yu, F. Corsetti, A. Garcia, W. P. Huhn, M. Jacquelin, W. Jia,
    B. Lange, L. Lin, J. Lu, W. Mi, A. Seifitokaldani, A. Vazquez-Mayagoitia,
    C. Yang, H. Yang, and V. Blum
    'ELSI: A unified software interface for Kohn-Sham electronic structure solvers'
    Computer Physics Communications 222, 267-285 (2018).
    http://doi.org/10.1016/j.cpc.2017.09.007


  For the real-space grid partitioning and parallelization used in this calculation, please cite:

    Ville Havu, Volker Blum, Paula Havu, and Matthias Scheffler,
    'Efficient O(N) integration for all-electron electronic structure calculation'
    'using numerically tabulated basis functions'
    Journal of Computational Physics 228, 8367-8379 (2009).
    http://doi.org/10.1016/j.jcp.2009.08.008

  Of course, there are many other important community references, e.g., those cited in the
  above references. Our list is limited to references that describe implementations in the
  FHI-aims code. The reason is purely practical (length of this list) - please credit others as well.

   One or more s.c.f. cycles took more than 50 s.c.f. iterations.
   It might be worth adjusting your convergence settings. For example,
   metals need a larger broadening and a smaller "charge_mix_param" value than semiconductors.

------------------------------------------------------------
          Leaving FHI-aims.
          Date     :  20230627, Time     :  193437.978

          Computational steps:
          | Number of self-consistency cycles          :          141
          | Number of SCF (re)initializations          :            1

          Detailed time accounting                     :  max(cpu_time)    wall_clock(cpu1)
          | Total time                                  :     3059.264 s        3059.402 s
          | Preparation time                            :        0.847 s           0.866 s
          | Boundary condition initalization            :        0.591 s           0.592 s
          | Grid partitioning                           :        0.781 s           0.781 s
          | Preloading free-atom quantities on grid     :        1.077 s           1.087 s
          | Free-atom superposition energy              :        0.245 s           0.246 s
          | Total time for integrations                 :      627.519 s         627.553 s
          | Total time for solution of K.-S. equations  :      808.885 s         808.963 s
          | Total time for density update               :     1175.348 s        1175.373 s
          | Total time for mixing & preconditioning     :      113.362 s         113.453 s
          | Total time for Hartree multipole update     :        0.802 s           0.853 s
          | Total time for Hartree multipole sum        :      218.776 s         218.795 s
          | Total time for total energy evaluation      :        0.788 s           0.865 s
          | Total time for scaled ZORA corrections      :        0.000 s           0.000 s
          | Total time for perturbative SOC             :       45.024 s          45.032 s
          | Total time for band structures, DOS         :       64.222 s          64.223 s

          Partial memory accounting:
          | Residual value for overall tracked memory usage across tasks:     0.000000 MB (should be 0.000000 MB)
          | Peak values for overall tracked memory usage:
          |   Minimum:      171.034 MB (on task 30 after allocating potential_shell)
          |   Maximum:      178.089 MB (on task  6 after allocating potential_shell)
          |   Average:      173.663 MB
          | Largest tracked array allocation:
          |   Minimum:       50.815 MB (soc_matrix on task  0)
          |   Maximum:       50.815 MB (soc_matrix on task  0)
          |   Average:       50.815 MB
          Note:  These values currently only include a subset of arrays which are explicitly tracked.
          The "true" memory usage will be greater.

          Have a nice day.
------------------------------------------------------------
