------------------------------------------------------------
          Invoking FHI-aims ...

          When using FHI-aims, please cite the following reference:

            Volker Blum, Ralf Gehrke, Felix Hanke, Paula Havu,
            Ville Havu, Xinguo Ren, Karsten Reuter, and Matthias Scheffler,
            'Ab Initio Molecular Simulations with Numeric Atom-Centered Orbitals',
            Computer Physics Communications 180, 2175-2196 (2009)

          In addition, many other developments in FHI-aims are likely important for
          your particular application. A partial list of references is given at the end of
          this file. Thank you for giving credit to the authors of these developments.

          For any questions about FHI-aims, please visit our slack channel at

            https://fhi-aims.slack.com

          and our main development and support site at

            https://aims-git.rz-berlin.mpg.de .

          The latter site, in particular, has a wiki to collect information, as well
          as an issue tracker to log discussions, suggest improvements, and report issues
          or bugs. https://aims-git.rz-berlin.mpg.de is also the main development site
          of the project and all new and updated code versions can be obtained there.
          Please send an email to aims-coordinators@fhi-berlin.mpg.de and we will add
          you to these sites. They are for you and everyone is welcome there.

------------------------------------------------------------



  Date     :  20220728, Time     :  132840.627
  Time zero on CPU 1             :   0.134912000000000E+00  s.
  Internal wall clock time zero  :           428246920.627  s.

  FHI-aims created a unique identifier for this run for later identification
  aims_uuid : 0C8586A2-9F28-4FBC-A9AF-318982137514

  Build configuration of the current instance of FHI-aims
  -------------------------------------------------------
  FHI-aims version      : 210716.2
  Commit number         : GITDIR-NOTFOUND
  CMake host system     : Linux-4.12.14-197.78_9.1.64-cray_shasta_c
  CMake version         : 3.10.2
  Fortran compiler      : /opt/cray/pe/craype/2.7.10/bin/ftn (Cray) version 12.0
  Fortran compiler flags: -O2 -Ounroll2 -Oipa3 -Ovector3 -hfp2
  C compiler            : /opt/cray/pe/craype/2.7.10/bin/cc (Clang) version 12.0.0
  C compiler flags      : -O2 -funroll-loops -ffast-math
  ELPA2 kernel          : AVX2
  Using MPI
  Using ScaLAPACK
  Using LibXC
  Using i-PI
  Using RLSY
  Linking against:

  Using      128 parallel tasks.
  Task        0 on host nid004083 reporting.
  Task        1 on host nid004083 reporting.
  Task        2 on host nid004083 reporting.
  Task        3 on host nid004083 reporting.
  Task        4 on host nid004083 reporting.
  Task        5 on host nid004083 reporting.
  Task        6 on host nid004083 reporting.
  Task        7 on host nid004083 reporting.
  Task        8 on host nid004083 reporting.
  Task        9 on host nid004083 reporting.
  Task       10 on host nid004083 reporting.
  Task       11 on host nid004083 reporting.
  Task       12 on host nid004083 reporting.
  Task       13 on host nid004083 reporting.
  Task       14 on host nid004083 reporting.
  Task       15 on host nid004083 reporting.
  Task       16 on host nid004086 reporting.
  Task       17 on host nid004086 reporting.
  Task       18 on host nid004086 reporting.
  Task       19 on host nid004086 reporting.
  Task       20 on host nid004086 reporting.
  Task       21 on host nid004086 reporting.
  Task       22 on host nid004086 reporting.
  Task       23 on host nid004086 reporting.
  Task       24 on host nid004086 reporting.
  Task       25 on host nid004086 reporting.
  Task       26 on host nid004086 reporting.
  Task       27 on host nid004086 reporting.
  Task       28 on host nid004086 reporting.
  Task       29 on host nid004086 reporting.
  Task       30 on host nid004086 reporting.
  Task       31 on host nid004086 reporting.
  Task       32 on host nid004141 reporting.
  Task       33 on host nid004141 reporting.
  Task       34 on host nid004141 reporting.
  Task       35 on host nid004141 reporting.
  Task       36 on host nid004141 reporting.
  Task       37 on host nid004141 reporting.
  Task       38 on host nid004141 reporting.
  Task       39 on host nid004141 reporting.
  Task       40 on host nid004141 reporting.
  Task       41 on host nid004141 reporting.
  Task       42 on host nid004141 reporting.
  Task       43 on host nid004141 reporting.
  Task       44 on host nid004141 reporting.
  Task       45 on host nid004141 reporting.
  Task       46 on host nid004141 reporting.
  Task       47 on host nid004141 reporting.
  Task       48 on host nid004159 reporting.
  Task       49 on host nid004159 reporting.
  Task       50 on host nid004159 reporting.
  Task       51 on host nid004159 reporting.
  Task       52 on host nid004159 reporting.
  Task       53 on host nid004159 reporting.
  Task       54 on host nid004159 reporting.
  Task       55 on host nid004159 reporting.
  Task       56 on host nid004159 reporting.
  Task       57 on host nid004159 reporting.
  Task       58 on host nid004159 reporting.
  Task       59 on host nid004159 reporting.
  Task       60 on host nid004159 reporting.
  Task       61 on host nid004159 reporting.
  Task       62 on host nid004159 reporting.
  Task       63 on host nid004159 reporting.
  Task       64 on host nid004160 reporting.
  Task       65 on host nid004160 reporting.
  Task       66 on host nid004160 reporting.
  Task       67 on host nid004160 reporting.
  Task       68 on host nid004160 reporting.
  Task       69 on host nid004160 reporting.
  Task       70 on host nid004160 reporting.
  Task       71 on host nid004160 reporting.
  Task       72 on host nid004160 reporting.
  Task       73 on host nid004160 reporting.
  Task       74 on host nid004160 reporting.
  Task       75 on host nid004160 reporting.
  Task       76 on host nid004160 reporting.
  Task       77 on host nid004160 reporting.
  Task       78 on host nid004160 reporting.
  Task       79 on host nid004160 reporting.
  Task       80 on host nid004161 reporting.
  Task       81 on host nid004161 reporting.
  Task       82 on host nid004161 reporting.
  Task       83 on host nid004161 reporting.
  Task       84 on host nid004161 reporting.
  Task       85 on host nid004161 reporting.
  Task       86 on host nid004161 reporting.
  Task       87 on host nid004161 reporting.
  Task       88 on host nid004161 reporting.
  Task       89 on host nid004161 reporting.
  Task       90 on host nid004161 reporting.
  Task       91 on host nid004161 reporting.
  Task       92 on host nid004161 reporting.
  Task       93 on host nid004161 reporting.
  Task       94 on host nid004161 reporting.
  Task       95 on host nid004161 reporting.
  Task       96 on host nid004162 reporting.
  Task       97 on host nid004162 reporting.
  Task       98 on host nid004162 reporting.
  Task       99 on host nid004162 reporting.
  Task      100 on host nid004162 reporting.
  Task      101 on host nid004162 reporting.
  Task      102 on host nid004162 reporting.
  Task      103 on host nid004162 reporting.
  Task      104 on host nid004162 reporting.
  Task      105 on host nid004162 reporting.
  Task      106 on host nid004162 reporting.
  Task      107 on host nid004162 reporting.
  Task      108 on host nid004162 reporting.
  Task      109 on host nid004162 reporting.
  Task      110 on host nid004162 reporting.
  Task      111 on host nid004162 reporting.
  Task      112 on host nid004163 reporting.
  Task      113 on host nid004163 reporting.
  Task      114 on host nid004163 reporting.
  Task      115 on host nid004163 reporting.
  Task      116 on host nid004163 reporting.
  Task      117 on host nid004163 reporting.
  Task      118 on host nid004163 reporting.
  Task      119 on host nid004163 reporting.
  Task      120 on host nid004163 reporting.
  Task      121 on host nid004163 reporting.
  Task      122 on host nid004163 reporting.
  Task      123 on host nid004163 reporting.
  Task      124 on host nid004163 reporting.
  Task      125 on host nid004163 reporting.
  Task      126 on host nid004163 reporting.
  Task      127 on host nid004163 reporting.

  Performing system and environment tests:
  | Environment variable OMP_NUM_THREADS correctly set to 1.
  | Checking for ScaLAPACK...
  | Testing pdtran()...
  | All pdtran() tests passed.

  Obtaining array dimensions for all initial allocations:
  
  -----------------------------------------------------------------------
  Parsing control.in (first pass over file, find array dimensions only).
  The contents of control.in will be repeated verbatim below
  unless switched off by setting 'verbatim_writeout .false.' .
  in the first line of control.in .
  -----------------------------------------------------------------------
  
  xc               hse06 0.11
  hse_unit bohr-1
  exx_band_structure_version 1
  charge           0.
  spin             none
  relativistic atomic_zora scalar
  k_grid                8 8 6
  sc_accuracy_rho       1E-7
  include_spin_orbit
  output band   0.00000  0.00000  0.00000   0.50000  0.00000  0.00000   58 G  M
   output band   0.50000  0.00000  0.00000   0.33333  0.33333  0.00000   34 M  K
   output band   0.33333  0.33333  0.00000   0.00000  0.00000  0.00000   67 K  G
   output band   0.00000  0.00000  0.00000   0.00000  0.00000  0.50000   31 G  A
   output band   0.00000  0.00000  0.50000   0.50000  0.00000  0.50000   58 A  L
   output band   0.50000  0.00000  0.50000   0.33333  0.33333  0.50000   34 L  H
   output band   0.33333  0.33333  0.50000   0.00000  0.00000  0.50000   67 H  A
   output band   0.50000  0.00000  0.50000   0.50000  0.00000  0.00000   31 L  M
   output band   0.33333  0.33333  0.00000   0.33333  0.33333  0.50000   31 K  H
  
  ################################################################################
  #
  #  FHI-aims code project
  #  Volker Blum, Fritz Haber Institute Berlin, 2009
  #
  #  Suggested "tight" defaults for Ba atom (to be pasted into control.in file)
  #
  #  The onset of the cutoff pot'l WAS set to 8 A by default, because the neutral
  #  Ba atom is a large atom. However, this is very expensive. The radius should be
  #  much smaller in real-world situations, where Ba will be ionic. Please check
  #  and reduce the cutoff radius explicitly.
  #
  #  2015/11/12 : f and g functions from tier2 added to default basis set choice.
  #               These functions make a difference in the "delta test".
  #               Reduced the default cutoff radius to 6AA. The free-atom 6s function
  #               requires more. However, 6AA is already VERY expensive for
  #               any production calculations. In fact, revisit this choice for
  #               ionic systems to see if a smaller cutoff radius will do.
  #
  ################################################################################
    species          Ba
  #     global species definitions
      nucleus        56
      mass           137.327
  #
      l_hartree      6
  #
      cut_pot        6.0  2.0  1.0
      basis_dep_cutoff    1e-4
  #
      radial_base    65  7.0
      radial_multiplier  2
      angular_grids specified
        division   0.6752  110
        division   0.9746  194
        division   1.2241  302
        division   1.3850  434
  #      division   1.4734  590
  #      division   1.6010  770
  #      division   4.8366  974
  #      outer_grid  974
        outer_grid  434
  ################################################################################
  #
  #  Definition of "minimal" basis
  #
  ################################################################################
  #     valence basis states
      valence      6  s   2.
      valence      5  p   6.
      valence      4  d  10.
  #     ion occupancy
      ion_occ      6  s   1.
      ion_occ      5  p   6.
      ion_occ      4  d  10.
  ################################################################################
  #
  #  Suggested additional basis functions. For production calculations,
  #  uncomment them one after another (the most important basis functions are
  #  listed first).
  #
  #  Constructed for dimers: 2.65, 3.00, 3.50, 4.40, 5.50 Ang
  #
  ################################################################################
  #  "First tier" - improvements: -1277.43 meV to -9.16 meV
       ionic 5 d auto
       ionic 4 f auto
       hydro 3 p 2.7
       hydro 4 s 3.3
  #  "Second tier" - improvements: -64.04 (!) meV to -0.25 meV
       hydro 4 f 5.8
       hydro 5 g 7.4
  #     hydro 4 d 4.5
  #     hydro 6 h 11.2
  #     hydro 5 p 6.6
  #     hydro 2 s 3.2
  #  "Third tier" - max. impr. -1.16 meV, min. impr. -0.08 meV
  #     hydro 5 f 7.4
  #     hydro 5 g 10.8
  #     hydro 4 d 2.3
  #     hydro 4 p 3.7
  #     hydro 5 s 4.0
  #  Further functions - impr. -0.35 meV and below
  #     hydro 5 d 3.5
  #     hydro 6 d 0.4
  #     hydro 2 p 2.5
  #     hydro 5 f 12
  #     hydro 6 d 8.8
  ################################################################################
  #
  #  FHI-aims code project
  #  Volker Blum, Fritz Haber Institute Berlin, 2009
  #
  #  Suggested "tight" defaults for Zr atom (to be pasted into control.in file)
  #
  ################################################################################
    species          Zr
  #     global species definitions
      nucleus        40
      mass           91.224
  #
      l_hartree      6
  #
      cut_pot        4.0  2.0  1.0
      basis_dep_cutoff    1e-4
  #
      radial_base    58  7.0
      radial_multiplier  2
      angular_grids specified
        division   0.3653   50
        division   0.8035  110
        division   1.2273  194
        division   1.4586  302
        division   1.6764  434
  #      division   1.9671  590
  #      division   2.1961  770
  #      division   2.3240  974
  #      division   3.4772 1202
  #      outer_grid  974
        outer_grid  434
  ################################################################################
  #
  #  Definition of "minimal" basis
  #
  ################################################################################
  #     valence basis states
      valence      5  s   2.
      valence      4  p   6.
      valence      4  d   2.
  #     ion occupancy
      ion_occ      5  s   1.
      ion_occ      4  p   6.
      ion_occ      4  d   1.
  ################################################################################
  #
  #  Suggested additional basis functions. For production calculations,
  #  uncomment them one after another (the most important basis functions are
  #  listed first).
  #
  #  Constructed for dimers: 1.9, 2.25, 3.00, 4.00 Ang
  #
  ################################################################################
  #  "First tier" - improvements: -605.96 meV to -18.06 meV
       hydro 4 f 7.2
       ionic 4 d auto
       ionic 5 p auto
       hydro 5 g 10.4
       ionic 5 s auto
  #  "Second tier" - improvements: -32.47 meV to -1.41 meV
  #     hydro 4 f 10.4
  #     hydro 6 h 14.8
  #     hydro 4 d 6.2
  #     hydro 4 p 4.4
  #     hydro 4 f 20
  #     hydro 5 s 6
  #  "Third tier" - improvements: -1.99 meV and lower.
  #     hydro 4 f 5.8
  #     hydro 5 g 10.8
  #     hydro 2 p 1
  #     hydro 3 d 8
  #     hydro 6 h 14.4
  #     hydro 1 s 0.9
  #  Further functions (approx -0.40 meV and below possible)
  ################################################################################
  #
  #  FHI-aims code project
  #  Volker Blum, Fritz Haber Institute Berlin, 2009
  #
  #  Suggested "tight" defaults for S atom (to be pasted into control.in file)
  #
  #  Revised Jan 04, 2011, following tests (SiC) done by Lydia Nemec:
  #     d and g functions of tier 2 now enabled by default.
  #
  ################################################################################
    species        S
  #     global species definitions
      nucleus             16
      mass                32.065
  #
      l_hartree           6
  #
      cut_pot             4.0          2.0  1.0
      basis_dep_cutoff    1e-4
  #
      radial_base         44 7.0
      radial_multiplier   2
      angular_grids       specified
        division   0.4665  110
        division   0.5810  194
        division   0.7139  302
        division   0.8274  434
  #      division   0.9105  590
  #      division   1.0975  770
  #      division   1.2028  974
  #      outer_grid  974
        outer_grid  434
  ################################################################################
  #
  #  Definition of "minimal" basis
  #
  ################################################################################
  #     valence basis states
      valence      3  s   2.
      valence      3  p   4.
  #     ion occupancy
      ion_occ      3  s   1.
      ion_occ      3  p   3.
  ################################################################################
  #
  #  Suggested additional basis functions. For production calculations,
  #  uncomment them one after another (the most important basis functions are
  #  listed first).
  #
  #  Constructed for dimers: 1.6 A, 1.9 A, 2.5 A, 3.25 A, 4.0 A
  #
  ################################################################################
  #  "First tier" - improvements: -652.81 meV to -45.53 meV
       ionic 3 d auto
       hydro 2 p 1.8
       hydro 4 f 7
       ionic 3 s auto
  #  "Second tier" - improvements: -30.20 meV to -1.74 meV
       hydro 4 d 6.2
       hydro 5 g 10.8
  #     hydro 4 p 4.9
  #     hydro 5 f 10
  #     hydro 1 s 0.8
  #  "Third tier" - improvements: -1.04 meV to -0.20 meV
  #     hydro 3 d 3.9
  #     hydro 3 d 2.7
  #     hydro 5 g 12
  #     hydro 4 p 10.4
  #     hydro 5 f 12.4
  #     hydro 2 s 1.9
  #  "Fourth tier" - improvements: -0.35 meV to -0.06 meV
  #     hydro 4 d 10.4
  #     hydro 4 p 7.2
  #     hydro 4 d 10
  #     hydro 5 g 19.2
  #     hydro 4 s 12
  
  ################################################################################
  #
  # For methods that use the localized form of the "resolution of identity" for
  # the two-electron Coulomb operator (RI_method LVL), particularly Hartree-Fock and
  # hybrid density functional calculations, the highest accuracy can be obtained by
  # uncommenting the line beginning with "for_aux"  below, thus adding an extra g radial
  # function to the construction of the product basis set for the expansion.
  # See Ref. New J. Phys. 17, 093020 (2015) for more information, particularly Figs. 1 and 6.
  #
  ################################################################################
  #
  # for_aux hydro 5 g 6.0
  
  -----------------------------------------------------------------------
  Completed first pass over input file control.in .
  -----------------------------------------------------------------------
  
  
  -----------------------------------------------------------------------
  Parsing geometry.in (first pass over file, find array dimensions only).
  The contents of geometry.in will be repeated verbatim below
  unless switched off by setting 'verbatim_writeout .false.' .
  in the first line of geometry.in .
  -----------------------------------------------------------------------
  
  #
  # This is the geometry file that corresponds to the current relaxation step.
  # If you do not want this file to be written, set the "write_restart_geometry" flag to .false.
  #  aims_uuid : 63B61865-4C4D-4D6B-A291-7803E37F8D9B
  #
  lattice_vector      1.59214839     -2.75768062      0.00000000
  lattice_vector      1.59214839      2.75768062      0.00000000
  lattice_vector      0.00000000      0.00000000      5.11109431
  atom_frac       0.33333300     -0.33333300      0.25000000 Zr
  atom_frac      -0.33333300      0.33333300     -0.25000000 Zr
  #
  # What follows is the current estimated Hessian matrix constructed by the BFGS algorithm.
  # This is NOT the true Hessian matrix of the system.
  # If you do not want this information here, switch it off using the "hessian_to_restart_geometry" keyword.
  #
  trust_radius             0.8000000119
  hessian_block_lv             1       1          11.377652           2.280144           0.000000           2.280144           1.75583
  
  -----------------------------------------------------------------------
  Completed first pass over input file geometry.in .
  -----------------------------------------------------------------------
  

  Basic array size parameters:
  | Number of species                 :        3
  | Number of atoms                   :        2
  | Number of lattice vectors         :        3
  | Max. basis fn. angular momentum   :        4
  | Max. atomic/ionic basis occupied n:        6
  | Max. number of basis fn. types    :        3
  | Max. radial fns per species/type  :       12
  | Max. logarithmic grid size        :     1460
  | Max. radial integration grid size :      131
  | Max. angular integration grid size:      434
  | Max. angular grid division number :        8
  | Radial grid for Hartree potential :     1460
  | Number of spin channels           :        1

------------------------------------------------------------
          Reading file control.in.
------------------------------------------------------------

  XC: Using HSE-functional with OMEGA =  0.110000E+00 <units>.
  XC: For the actual units (bohr^-1 or Angstrom^-1), see below.
  hse_unit: Unit for the HSE06 hybrid functional screening parameter set to bohr^(-1).
  Charge =   0.000000E+00: Neutral system requested explicitly.
  Spin treatment: No spin polarisation.
  Scalar relativistic treatment of kinetic energy: on-site free-atom approximation to ZORA.
  Found k-point grid:         8         8         6
  Convergence accuracy of self-consistent charge density:  0.1000E-06
  Calculating non-self-consistent second-variational spin-orbit coupling after scf-cycle

  Plot band    1
  | begin  0.000000  0.000000  0.000000
  | end    0.500000  0.000000  0.000000
  | number of points:   58

  Plot band    2
  | begin  0.500000  0.000000  0.000000
  | end    0.333330  0.333330  0.000000
  | number of points:   34

  Plot band    3
  | begin  0.333330  0.333330  0.000000
  | end    0.000000  0.000000  0.000000
  | number of points:   67

  Plot band    4
  | begin  0.000000  0.000000  0.000000
  | end    0.000000  0.000000  0.500000
  | number of points:   31

  Plot band    5
  | begin  0.000000  0.000000  0.500000
  | end    0.500000  0.000000  0.500000
  | number of points:   58

  Plot band    6
  | begin  0.500000  0.000000  0.500000
  | end    0.333330  0.333330  0.500000
  | number of points:   34

  Plot band    7
  | begin  0.333330  0.333330  0.500000
  | end    0.000000  0.000000  0.500000
  | number of points:   67

  Plot band    8
  | begin  0.500000  0.000000  0.500000
  | end    0.500000  0.000000  0.000000
  | number of points:   31

  Plot band    9
  | begin  0.333330  0.333330  0.000000
  | end    0.333330  0.333330  0.500000
  | number of points:   31
 
  Reading configuration options for species Ba                  .
  | Found nuclear charge :  56.0000
  | Found atomic mass :  137.327 amu
  | Found l_max for Hartree potential  :   6
  | Found cutoff potl. onset [A], width [A], scale factor :    6.00000    2.00000    1.00000
  | Threshold for basis-dependent cutoff potential is   0.100000E-03
  | Found data for basic radial integration grid :    65 points, outermost radius =    7.000 A
  | Found multiplier for basic radial grid :   2
  | Found angular grid specification: user-specified.
  | Specified grid contains     5 separate shells.
  | Check grid settings after all constraints further below.
  | Found free-atom valence shell :  6 s   2.000
  | Found free-atom valence shell :  5 p   6.000
  | Found free-atom valence shell :  4 d  10.000
  | Found free-ion valence shell :  6 s   1.000
  | Found free-ion valence shell :  5 p   6.000
  | Found free-ion valence shell :  4 d  10.000
  | Found ionic basis function :  5 d , default cutoff radius.
  | Found ionic basis function :  4 f , default cutoff radius.
  | Found hydrogenic basis function :  3 p   2.700
  | Found hydrogenic basis function :  4 s   3.300
  | Found hydrogenic basis function :  4 f   5.800
  | Found hydrogenic basis function :  5 g   7.400
  Species Ba                  : Missing cutoff potential type.
  Defaulting to exp(1/x)/(1-x)^2 type cutoff potential.
  Species Ba: No 'logarithmic' tag. Using default grid for free atom:
  | Default logarithmic grid data [bohr] : 0.1000E-03 0.1000E+03 0.1012E+01
  | Will include ionic basis functions of  1.0-fold positive Ba                   ion.
  Species Ba: On-site basis accuracy parameter (for Gram-Schmidt orthonormalisation) not specified.
  Using default value basis_acc =  0.1000000E-03.
  Species Ba                  : Using default innermost maximum threshold i_radial=  2 for radial functions.
  Species Ba                  : Default cutoff onset for free atom density etc. : 0.60000000E+01 AA.
  Species Ba                  : Basic radial grid will be enhanced according to radial_multiplier =   2, to contain   131 grid points.
 
  Reading configuration options for species Zr                  .
  | Found nuclear charge :  40.0000
  | Found atomic mass :  91.224000000000004 amu
  | Found l_max for Hartree potential  :   6
  | Found cutoff potl. onset [A], width [A], scale factor :    4.00000    2.00000    1.00000
  | Threshold for basis-dependent cutoff potential is   0.100000E-03
  | Found data for basic radial integration grid :    58 points, outermost radius =    7.000 A
  | Found multiplier for basic radial grid :   2
  | Found angular grid specification: user-specified.
  | Specified grid contains     6 separate shells.
  | Check grid settings after all constraints further below.
  | Found free-atom valence shell :  5 s   2.000
  | Found free-atom valence shell :  4 p   6.000
  | Found free-atom valence shell :  4 d   2.000
  | Found free-ion valence shell :  5 s   1.000
  | Found free-ion valence shell :  4 p   6.000
  | Found free-ion valence shell :  4 d   1.000
  | Found hydrogenic basis function :  4 f   7.200
  | Found ionic basis function :  4 d , default cutoff radius.
  | Found ionic basis function :  5 p , default cutoff radius.
  | Found hydrogenic basis function :  5 g  10.400
  | Found ionic basis function :  5 s , default cutoff radius.
  Species Zr                  : Missing cutoff potential type.
  Defaulting to exp(1/x)/(1-x)^2 type cutoff potential.
  Species Zr: No 'logarithmic' tag. Using default grid for free atom:
  | Default logarithmic grid data [bohr] : 0.1000E-03 0.1000E+03 0.1012E+01
  | Will include ionic basis functions of  2.0-fold positive Zr                   ion.
  Species Zr: On-site basis accuracy parameter (for Gram-Schmidt orthonormalisation) not specified.
  Using default value basis_acc =  0.1000000E-03.
  Species Zr                  : Using default innermost maximum threshold i_radial=  2 for radial functions.
  Species Zr                  : Default cutoff onset for free atom density etc. : 0.40000000E+01 AA.
  Species Zr                  : Basic radial grid will be enhanced according to radial_multiplier =   2, to contain   117 grid points.
 
  Reading configuration options for species S                   .
  | Found nuclear charge :  16.0000
  | Found atomic mass :  32.064999999999998 amu
  | Found l_max for Hartree potential  :   6
  | Found cutoff potl. onset [A], width [A], scale factor :    4.00000    2.00000    1.00000
  | Threshold for basis-dependent cutoff potential is   0.100000E-03
  | Found data for basic radial integration grid :    44 points, outermost radius =    7.000 A
  | Found multiplier for basic radial grid :   2
  | Found angular grid specification: user-specified.
  | Specified grid contains     5 separate shells.
  | Check grid settings after all constraints further below.
  | Found free-atom valence shell :  3 s   2.000
  | Found free-atom valence shell :  3 p   4.000
  | Found free-ion valence shell :  3 s   1.000
  | Found free-ion valence shell :  3 p   3.000
  | Found ionic basis function :  3 d , default cutoff radius.
  | Found hydrogenic basis function :  2 p   1.800
  | Found hydrogenic basis function :  4 f   7.000
  | Found ionic basis function :  3 s , default cutoff radius.
  | Found hydrogenic basis function :  4 d   6.200
  | Found hydrogenic basis function :  5 g  10.800
  Species S                   : Missing cutoff potential type.
  Defaulting to exp(1/x)/(1-x)^2 type cutoff potential.
  Species S : No 'logarithmic' tag. Using default grid for free atom:
  | Default logarithmic grid data [bohr] : 0.1000E-03 0.1000E+03 0.1012E+01
  | Will include ionic basis functions of  2.0-fold positive S                    ion.
  Species S : On-site basis accuracy parameter (for Gram-Schmidt orthonormalisation) not specified.
  Using default value basis_acc =  0.1000000E-03.
  Species S                   : Using default innermost maximum threshold i_radial=  2 for radial functions.
  Species S                   : Default cutoff onset for free atom density etc. : 0.40000000E+01 AA.
  Species S                   : Basic radial grid will be enhanced according to radial_multiplier =   2, to contain    89 grid points.
 
  Finished reading input file 'control.in'.
 
------------------------------------------------------------


------------------------------------------------------------
          Reading geometry description geometry.in.
------------------------------------------------------------
 * Large trust radius value found - resetting to the current value of max_atomic_move,      0.20000000 A.
  | The smallest distance between any two atoms is         3.14813104 AA.
  | The first atom of this pair is atom number                      2 .
  | The second atom of this pair is atom number                     1 .
  | Wigner-Seitz cell of the first atom image           0    -1     1 .
  | (The Wigner-Seitz cell of the second atom is 0 0 0  by definition.)

  Symmetry information by spglib:
  | Precision set to  0.1E-04
  | Number of Operations  : 8
  | Space group           : 63
  | International         : Cmcm
  | Schoenflies           : D2h^17
  Input structure read successfully.
  The structure contains        2 atoms,  and a total of         80.000 electrons.

  Input geometry:
  | Unit cell:
  |        1.59214839       -2.75768062        0.00000000
  |        1.59214839        2.75768062        0.00000000
  |        0.00000000        0.00000000        5.11109431
  | Atomic structure:
  |       Atom                x [A]            y [A]            z [A]
  |    1: Species Zr            0.00000000       -1.83845191        1.27777358
  |    2: Species Zr           -0.00000000        1.83845191       -1.27777358

  Lattice parameters for 3D lattice (in Angstroms) :     3.184296    3.184296    5.111094
  Angle(s) between unit vectors (in degrees)       :    90.000000   90.000000  119.999977


  Quantities derived from the lattice vectors:
  | Reciprocal lattice vector 1:  1.973178 -1.139216  0.000000
  | Reciprocal lattice vector 2:  1.973178  1.139216  0.000000
  | Reciprocal lattice vector 3:  0.000000  0.000000  1.229323
  | Unit cell volume                               :   0.448819E+02  A^3

  Fractional coordinates:
                         L1                L2                L3
       atom_frac         0.33333300       -0.33333300        0.25000000  Zr
       atom_frac        -0.33333300        0.33333300       -0.25000000  Zr

 
  Finished reading input file 'control.in'.
 

------------------------------------------------------------
          Reading geometry description geometry.in.
------------------------------------------------------------
 
  Consistency checks for stacksize environment parameter are next.
 
  | Maximum stacksize for task 0: unlimited
  | Maximum stacksize for task 1: unlimited
  | Maximum stacksize for task 2: unlimited
  | Maximum stacksize for task 3: unlimited
  | Maximum stacksize for task 4: unlimited
  | Maximum stacksize for task 5: unlimited
  | Maximum stacksize for task 6: unlimited
  | Maximum stacksize for task 7: unlimited
  | Maximum stacksize for task 8: unlimited
  | Maximum stacksize for task 9: unlimited
  | Maximum stacksize for task 10: unlimited
  | Maximum stacksize for task 11: unlimited
  | Maximum stacksize for task 12: unlimited
  | Maximum stacksize for task 13: unlimited
  | Maximum stacksize for task 14: unlimited
  | Maximum stacksize for task 15: unlimited
  | Maximum stacksize for task 16: unlimited
  | Maximum stacksize for task 17: unlimited
  | Maximum stacksize for task 18: unlimited
  | Maximum stacksize for task 19: unlimited
  | Maximum stacksize for task 20: unlimited
  | Maximum stacksize for task 21: unlimited
  | Maximum stacksize for task 22: unlimited
  | Maximum stacksize for task 23: unlimited
  | Maximum stacksize for task 24: unlimited
  | Maximum stacksize for task 25: unlimited
  | Maximum stacksize for task 26: unlimited
  | Maximum stacksize for task 27: unlimited
  | Maximum stacksize for task 28: unlimited
  | Maximum stacksize for task 29: unlimited
  | Maximum stacksize for task 30: unlimited
  | Maximum stacksize for task 31: unlimited
  | Maximum stacksize for task 32: unlimited
  | Maximum stacksize for task 33: unlimited
  | Maximum stacksize for task 34: unlimited
  | Maximum stacksize for task 35: unlimited
  | Maximum stacksize for task 36: unlimited
  | Maximum stacksize for task 37: unlimited
  | Maximum stacksize for task 38: unlimited
  | Maximum stacksize for task 39: unlimited
  | Maximum stacksize for task 40: unlimited
  | Maximum stacksize for task 41: unlimited
  | Maximum stacksize for task 42: unlimited
  | Maximum stacksize for task 43: unlimited
  | Maximum stacksize for task 44: unlimited
  | Maximum stacksize for task 45: unlimited
  | Maximum stacksize for task 46: unlimited
  | Maximum stacksize for task 47: unlimited
  | Maximum stacksize for task 48: unlimited
  | Maximum stacksize for task 49: unlimited
  | Maximum stacksize for task 50: unlimited
  | Maximum stacksize for task 51: unlimited
  | Maximum stacksize for task 52: unlimited
  | Maximum stacksize for task 53: unlimited
  | Maximum stacksize for task 54: unlimited
  | Maximum stacksize for task 55: unlimited
  | Maximum stacksize for task 56: unlimited
  | Maximum stacksize for task 57: unlimited
  | Maximum stacksize for task 58: unlimited
  | Maximum stacksize for task 59: unlimited
  | Maximum stacksize for task 60: unlimited
  | Maximum stacksize for task 61: unlimited
  | Maximum stacksize for task 62: unlimited
  | Maximum stacksize for task 63: unlimited
  | Maximum stacksize for task 64: unlimited
  | Maximum stacksize for task 65: unlimited
  | Maximum stacksize for task 66: unlimited
  | Maximum stacksize for task 67: unlimited
  | Maximum stacksize for task 68: unlimited
  | Maximum stacksize for task 69: unlimited
  | Maximum stacksize for task 70: unlimited
  | Maximum stacksize for task 71: unlimited
  | Maximum stacksize for task 72: unlimited
  | Maximum stacksize for task 73: unlimited
  | Maximum stacksize for task 74: unlimited
  | Maximum stacksize for task 75: unlimited
  | Maximum stacksize for task 76: unlimited
  | Maximum stacksize for task 77: unlimited
  | Maximum stacksize for task 78: unlimited
  | Maximum stacksize for task 79: unlimited
  | Maximum stacksize for task 80: unlimited
  | Maximum stacksize for task 81: unlimited
  | Maximum stacksize for task 82: unlimited
  | Maximum stacksize for task 83: unlimited
  | Maximum stacksize for task 84: unlimited
  | Maximum stacksize for task 85: unlimited
  | Maximum stacksize for task 86: unlimited
  | Maximum stacksize for task 87: unlimited
  | Maximum stacksize for task 88: unlimited
  | Maximum stacksize for task 89: unlimited
  | Maximum stacksize for task 90: unlimited
  | Maximum stacksize for task 91: unlimited
  | Maximum stacksize for task 92: unlimited
  | Maximum stacksize for task 93: unlimited
  | Maximum stacksize for task 94: unlimited
  | Maximum stacksize for task 95: unlimited
  | Maximum stacksize for task 96: unlimited
  | Maximum stacksize for task 97: unlimited
  | Maximum stacksize for task 98: unlimited
  | Maximum stacksize for task 99: unlimited
  | Maximum stacksize for task 100: unlimited
  | Maximum stacksize for task 101: unlimited
  | Maximum stacksize for task 102: unlimited
  | Maximum stacksize for task 103: unlimited
  | Maximum stacksize for task 104: unlimited
  | Maximum stacksize for task 105: unlimited
  | Maximum stacksize for task 106: unlimited
  | Maximum stacksize for task 107: unlimited
  | Maximum stacksize for task 108: unlimited
  | Maximum stacksize for task 109: unlimited
  | Maximum stacksize for task 110: unlimited
  | Maximum stacksize for task 111: unlimited
  | Maximum stacksize for task 112: unlimited
  | Maximum stacksize for task 113: unlimited
  | Maximum stacksize for task 114: unlimited
  | Maximum stacksize for task 115: unlimited
  | Maximum stacksize for task 116: unlimited
  | Maximum stacksize for task 117: unlimited
  | Maximum stacksize for task 118: unlimited
  | Maximum stacksize for task 119: unlimited
  | Maximum stacksize for task 120: unlimited
  | Maximum stacksize for task 121: unlimited
  | Maximum stacksize for task 122: unlimited
  | Maximum stacksize for task 123: unlimited
  | Maximum stacksize for task 124: unlimited
  | Maximum stacksize for task 125: unlimited
  | Maximum stacksize for task 126: unlimited
  | Maximum stacksize for task 127: unlimited
  | Current stacksize for task 0: unlimited
  | Current stacksize for task 1: unlimited
  | Current stacksize for task 2: unlimited
  | Current stacksize for task 3: unlimited
  | Current stacksize for task 4: unlimited
  | Current stacksize for task 5: unlimited
  | Current stacksize for task 6: unlimited
  | Current stacksize for task 7: unlimited
  | Current stacksize for task 8: unlimited
  | Current stacksize for task 9: unlimited
  | Current stacksize for task 10: unlimited
  | Current stacksize for task 11: unlimited
  | Current stacksize for task 12: unlimited
  | Current stacksize for task 13: unlimited
  | Current stacksize for task 14: unlimited
  | Current stacksize for task 15: unlimited
  | Current stacksize for task 16: unlimited
  | Current stacksize for task 17: unlimited
  | Current stacksize for task 18: unlimited
  | Current stacksize for task 19: unlimited
  | Current stacksize for task 20: unlimited
  | Current stacksize for task 21: unlimited
  | Current stacksize for task 22: unlimited
  | Current stacksize for task 23: unlimited
  | Current stacksize for task 24: unlimited
  | Current stacksize for task 25: unlimited
  | Current stacksize for task 26: unlimited
  | Current stacksize for task 27: unlimited
  | Current stacksize for task 28: unlimited
  | Current stacksize for task 29: unlimited
  | Current stacksize for task 30: unlimited
  | Current stacksize for task 31: unlimited
  | Current stacksize for task 32: unlimited
  | Current stacksize for task 33: unlimited
  | Current stacksize for task 34: unlimited
  | Current stacksize for task 35: unlimited
  | Current stacksize for task 36: unlimited
  | Current stacksize for task 37: unlimited
  | Current stacksize for task 38: unlimited
  | Current stacksize for task 39: unlimited
  | Current stacksize for task 40: unlimited
  | Current stacksize for task 41: unlimited
  | Current stacksize for task 42: unlimited
  | Current stacksize for task 43: unlimited
  | Current stacksize for task 44: unlimited
  | Current stacksize for task 45: unlimited
  | Current stacksize for task 46: unlimited
  | Current stacksize for task 47: unlimited
  | Current stacksize for task 48: unlimited
  | Current stacksize for task 49: unlimited
  | Current stacksize for task 50: unlimited
  | Current stacksize for task 51: unlimited
  | Current stacksize for task 52: unlimited
  | Current stacksize for task 53: unlimited
  | Current stacksize for task 54: unlimited
  | Current stacksize for task 55: unlimited
  | Current stacksize for task 56: unlimited
  | Current stacksize for task 57: unlimited
  | Current stacksize for task 58: unlimited
  | Current stacksize for task 59: unlimited
  | Current stacksize for task 60: unlimited
  | Current stacksize for task 61: unlimited
  | Current stacksize for task 62: unlimited
  | Current stacksize for task 63: unlimited
  | Current stacksize for task 64: unlimited
  | Current stacksize for task 65: unlimited
  | Current stacksize for task 66: unlimited
  | Current stacksize for task 67: unlimited
  | Current stacksize for task 68: unlimited
  | Current stacksize for task 69: unlimited
  | Current stacksize for task 70: unlimited
  | Current stacksize for task 71: unlimited
  | Current stacksize for task 72: unlimited
  | Current stacksize for task 73: unlimited
  | Current stacksize for task 74: unlimited
  | Current stacksize for task 75: unlimited
  | Current stacksize for task 76: unlimited
  | Current stacksize for task 77: unlimited
  | Current stacksize for task 78: unlimited
  | Current stacksize for task 79: unlimited
  | Current stacksize for task 80: unlimited
  | Current stacksize for task 81: unlimited
  | Current stacksize for task 82: unlimited
  | Current stacksize for task 83: unlimited
  | Current stacksize for task 84: unlimited
  | Current stacksize for task 85: unlimited
  | Current stacksize for task 86: unlimited
  | Current stacksize for task 87: unlimited
  | Current stacksize for task 88: unlimited
  | Current stacksize for task 89: unlimited
  | Current stacksize for task 90: unlimited
  | Current stacksize for task 91: unlimited
  | Current stacksize for task 92: unlimited
  | Current stacksize for task 93: unlimited
  | Current stacksize for task 94: unlimited
  | Current stacksize for task 95: unlimited
  | Current stacksize for task 96: unlimited
  | Current stacksize for task 97: unlimited
  | Current stacksize for task 98: unlimited
  | Current stacksize for task 99: unlimited
  | Current stacksize for task 100: unlimited
  | Current stacksize for task 101: unlimited
  | Current stacksize for task 102: unlimited
  | Current stacksize for task 103: unlimited
  | Current stacksize for task 104: unlimited
  | Current stacksize for task 105: unlimited
  | Current stacksize for task 106: unlimited
  | Current stacksize for task 107: unlimited
  | Current stacksize for task 108: unlimited
  | Current stacksize for task 109: unlimited
  | Current stacksize for task 110: unlimited
  | Current stacksize for task 111: unlimited
  | Current stacksize for task 112: unlimited
  | Current stacksize for task 113: unlimited
  | Current stacksize for task 114: unlimited
  | Current stacksize for task 115: unlimited
  | Current stacksize for task 116: unlimited
  | Current stacksize for task 117: unlimited
  | Current stacksize for task 118: unlimited
  | Current stacksize for task 119: unlimited
  | Current stacksize for task 120: unlimited
  | Current stacksize for task 121: unlimited
  | Current stacksize for task 122: unlimited
  | Current stacksize for task 123: unlimited
  | Current stacksize for task 124: unlimited
  | Current stacksize for task 125: unlimited
  | Current stacksize for task 126: unlimited
  | Current stacksize for task 127: unlimited
 
  Consistency checks for the contents of control.in are next.
 
  HSE06 screening parameters: omega_HF  =      0.11000000 bohr^-1, and
                              omega_PBE =      0.11000000 bohr^-1.
  MPI_IN_PLACE appears to work with this MPI implementation.
  | Keeping use_mpi_in_place .true. (see manual).
  Explicit treatment of the Coulomb operator is needed, but the RI method is not specified.
  Coulomb operator: Defaulting to 'LVL fast' resolution of identity - RI_type = LVL_fast
  Species Ba: Using default value for prodbas_acc =   1.000000E-04.
  Species Ba: Using default value max_l_prodbas =    20.
  Species Zr: Using default value for prodbas_acc =   1.000000E-04.
  Species Zr: Using default value max_l_prodbas =    20.
  Species S: Using default value for prodbas_acc =   1.000000E-04.
  Species S: Using default value max_l_prodbas =    20.
  Target number of points in a grid batch is not set. Defaulting to  100
  Method for grid partitioning is not set. Defaulting to parallel hash+maxmin partitioning.
  Batch size limit is not set. Defaulting to    200
  By default, will store active basis functions for each batch.
  If in need of memory, prune_basis_once .false. can be used to disable this option.
  communication_type for Hartree potential was not specified.
  Defaulting to calc_hartree .
  Defaulting to Pulay charge density mixer.
  Pulay mixer: Number of relevant iterations not set.
  Defaulting to    8 iterations.
  Pulay mixer: Number of initial linear mixing iterations not set.
  Defaulting to    0 iterations.
  Work space size for distributed Hartree potential not set.
  Defaulting to   0.200000E+03 MB.
  Mixing parameter for charge density mixing has not been set.
  Using default: charge_mix_param =     0.0500.
  The mixing parameter will be adjusted in iteration number     2 of the first full s.c.f. cycle only.
  Algorithm-dependent basis array size parameters:
  | n_max_pulay                         :        8
  Maximum number of self-consistency iterations not provided.
  Presetting  1000 iterations.
  Presetting      1001 iterations before the initial mixing cycle
  is restarted anyway using the sc_init_iter criterion / keyword.
  Presetting a factor      1.000 between actual scf density residual
  and density convergence criterion sc_accuracy_rho below which sc_init_iter
  takes no effect.
  Calculation of forces was not defined in control.in. No forces will be calculated.
  Geometry relaxation not requested: no relaxation will be performed.
  No accuracy limit for integral partition fn. given. Defaulting to  0.1000E-14.
  No threshold value for u(r) in integrations given. Defaulting to  0.1000E-05.
  No occupation type (smearing scheme) given. Defaulting to Gaussian broadening, width =  0.1000E-01 eV.
  The width will be adjusted in iteration number     2 of the first full s.c.f. cycle only.
  S.C.F. convergence parameters will be adjusted in iteration number     2 of the first full s.c.f. cycle only.
  No accuracy for occupation numbers given. Defaulting to  0.1000E-12.
  No threshold value for occupation numbers given. Defaulting to  0.0000E+00.
  No accuracy for fermi level given. Defaulting to  0.1000E-19.
  Maximum # of iterations to find E_F not set. Defaulting to  200.
  Preferred method for the eigenvalue solver ('KS_method') not specified in 'control.in'.
  Defaulting to serial version, LAPACK (via ELSI), since more k-points than CPUs available.
  Will not use alltoall communication since running on < 1024 CPUs.
  Threshold for basis singularities not set.
  Default threshold for basis singularities:  0.1000E-04
  partition_type (choice of integration weights) for integrals was not specified.
  | Using a version of the partition function of Stratmann and coworkers ('stratmann_sparse').
  | At each grid point, the set of atoms used to build the partition table is smoothly restricted to
  | only those atoms whose free-atom density would be non-zero at that grid point.
  Partitioning for Hartree potential was not defined. Using partition_type for integrals.
  | Adjusted default value of keyword multip_moments_threshold to:       0.10000000E-11
  | This value may affect high angular momentum components of the Hartree potential in periodic systems.
  Threshold for auxiliary basis singularities not set.
  Default threshold for auxiliary basis singularities:  0.1000E-04
  No q(lm)/r^(l+1) cutoff set for long-range Hartree potential.
  | Using default value of  0.100000E-09 .
  | Verify using the multipole_threshold keyword.
  Defaulting to new monopole extrapolation.
  Density update method: automatic selection selected.
  Using density matrix based charge density update.
  Using density matrix based charge density update.
  Using packed matrix style: index .
 * NOTE: You are attempting to run a periodic structure with an exchange treatment
 * which requires a two-electron Coulomb operator (Hartree-Fock or a hybrid functional).
 * The present implementation is reliable to our knowledge, but some things
 * (like band structure output, or perhaps the auxilary basis set for small
 * orbital basis sets - see the "for_aux" keyword) require extra care.
 * Please let us know if you encounter any trouble.
  Coulomb operator: Defaulting to screening threshold for four-center integrals:   0.100000E-06
  Coulomb operator: Defaulting to screening threshold for Coulomb matrix:   0.100000E-09
  Coulomb operator: Defaulting to 'LVL_fast' resolution of identity - RI_type = LVL_fast 
  No other resolution of identity version is supported for periodic boundary conditions at present.
  Coulomb operator: Defaulting to logarithmic spherical Bessel transform integrals (use_logsbt .true.).
  HSE with LVL_fast: Also defaulting to logarithmic spherical Bessel transform integrals.
  Defaulting to use full k-point grid (no symmetry reduction).
  Charge integration errors on the 3D integration grid will be compensated
  by explicit normalization and distribution of residual charges.
  Use the "compensate_multipole_errors" flag to change this behaviour.
  LVL not implemented with density matrix yet
  -> switching to transformed overlap
  LVL probably works better with logsbt
  Default to 1D ("use_logsbt") integrations for auxiliary 2-center integrals.
  Default onset of logarithmic r-grid for SBT is -38.000000000000
  Default onset of logarithmic k-grid for SBT is -25.000000000000
  Default range of logarithmic r- and k-grid for SBT is  45.000000000000
  Default number of logarithmic r- and k-grid for SBT is   4096
  * Use logSBT for radial HSE integration, too
 * NOTE: Band structure and exact exchange are requested at the same time,
 * and exx_band_structure_version is set to 1. 
 * exx_band_structure_version 1 is evaluated in a real-space formalism. It is fast
 * and the preferred version. HOWEVER, it does require a sufficiently
 * dense 'k_grid' to be used for the preceding s.c.f. cycle.
 * If the 'k_grid used for s.c.f. is NOT dense enough, the real-
 * space approach will produce bands that are OBVIOUSLY incorrect.
 * You cannot miss this - they won't look 'slightly' correct. In
 * that case, please try to increase the 'k_grid' parameters used
 * for the s.c.f. cycle. In particular, please avoid k_grid dimensions 
 * of '1' (one) in any dimension. We apologize for this inconvenience.
 * On the bright side, if you use exx_band_structure_version 1 
 * correctly, it will give reliable results without much overhead.
 * 
 * If your band structure does not look reasonable, increase the s.c.f. k-point
 * grid density. Again, it is especially recommended that you avoid dimensions of 1 when
 * specifying k_grid and using this option, even for large unit cells where a
 * gamma-point-only k-grid would be sufficient to converge the accuracy of the
 * calculation.
 * 
 * Please test (e.g., by comparing results from different k_grid settings) when in any doubt.
  Set 'collect_eigenvectors' to be '.true.' for all serial calculations. This is mandatory.
  Set 'collect_eigenvectors' to be '.true.' for KS_method lapack_fast and serial.
 
  Consistency checks for the contents of geometry.in are next.
 

  Range separation radius for Ewald summation (hartree_convergence_parameter):      4.05433252 bohr.
  Number of empty states per atom not set in control.in - providing a guess from actual geometry.
  | Total number of empty states used during s.c.f. cycle:       11
  If you use a very high smearing, use empty_states (per atom!) in control.in to increase this value.

  Structure-dependent array size parameters: 
  | Maximum number of distinct radial functions  :       44
  | Maximum number of basis functions            :       98
  | Number of Kohn-Sham states (occupied + empty):       51
------------------------------------------------------------
  Setting Coulomb cut-width to  1.091868692359 * rcut.
  Setting Coulomb cutting radius rcut to 12.737182669776 A.

------------------------------------------------------------
          Preparing all fixed parts of the calculation.
------------------------------------------------------------
  Determining machine precision:
   2.22507385850720138E-308
  Setting up grids for atomic and cluster calculations.

  Creating wave function, potential, and density for free atoms.

  Species: Ba

  List of occupied orbitals and eigenvalues:
    n    l              occ      energy [Ha]    energy [eV]
    1    0           2.0000     -1428.759176    -38878.5153
    2    0           2.0000      -218.156321     -5936.3355
    3    0           2.0000       -45.759571     -1245.1813
    4    0           2.0000        -8.961354      -243.8508
    5    0           2.0000        -1.235311       -33.6145
    6    0           2.0000        -0.117372        -3.1939
    2    1           6.0000      -195.503522     -5319.9215
    3    1           6.0000       -38.566500     -1049.4479
    4    1           6.0000        -6.648037      -180.9023
    5    1           6.0000        -0.686503       -18.6807
    3    2          10.0000       -28.146810      -765.9137
    4    2          10.0000        -3.294406       -89.6453


  Species: Zr

  List of occupied orbitals and eigenvalues:
    n    l              occ      energy [Ha]    energy [eV]
    1    0           2.0000      -668.722933    -18196.8768
    2    0           2.0000       -91.076987     -2478.3309
    3    0           2.0000       -14.873383      -404.7254
    4    0           2.0000        -1.994212       -54.2653
    5    0           2.0000        -0.156460        -4.2575
    2    1           6.0000       -81.194469     -2209.4139
    3    1           6.0000       -11.667913      -317.5001
    4    1           6.0000        -1.184217       -32.2242
    3    2          10.0000        -6.414313      -174.5423
    4    2           2.0000        -0.125045        -3.4027


  Species: S

  List of occupied orbitals and eigenvalues:
    n    l              occ      energy [Ha]    energy [eV]
    1    0           2.0000       -88.680731     -2413.1255
    2    0           2.0000        -7.781719      -211.7513
    3    0           2.0000        -0.633662       -17.2428
    2    1           6.0000        -5.751976      -156.5192
    3    1           4.0000        -0.257086        -6.9957


  Adding cutoff potential to free-atom effective potential.
  Creating fixed part of basis set: Ionic, confined, hydrogenic.
 
  Ba                   ion:

  List of free ionic orbitals and eigenvalues:
    n    l      energy [Ha]    energy [eV]
    1    0     -1428.980456    -38884.5366
    2    0      -218.370478     -5942.1630
    3    0       -45.972614     -1250.9785
    4    0        -9.173714      -249.6295
    5    0        -1.445296       -39.3285
    6    0        -0.278663        -7.5828
    2    1      -195.717553     -5325.7456
    3    1       -38.779502     -1055.2439
    4    1        -6.860306      -186.6784
    5    1        -0.894905       -24.3516
    3    2       -28.359770      -771.7086
    4    2        -3.506466       -95.4158


  List of ionic basis orbitals and eigenvalues:
    n    l      energy [Ha]    energy [eV]    outer radius [A]
    5    2        -0.260030        -7.0758       7.007670
    4    3        -0.142743        -3.8842       7.093864

 
  Ba                   hydrogenic:
 
  List of hydrogenic basis orbitals: 
    n    l      effective z      eigenvalue [eV]  inner max. [A]     outer max. [A]     outer radius [A]   
    3    1         2.700000       -11.0183           0.585865           2.360755           7.358861
    4    0         3.300000        -9.1387           0.118110           3.896996           7.449375
    4    3         5.800000       -28.6057           1.465516           1.465516           5.905331
    5    4         7.400000       -29.8017           1.782126           1.782126           6.354768
 
 
  Zr                   ion:

  List of free ionic orbitals and eigenvalues:
    n    l      energy [Ha]    energy [eV]
    1    0      -669.421026    -18215.8729
    2    0       -91.769634     -2497.1788
    3    0       -15.560469      -423.4219
    4    0        -2.663352       -72.4735
    5    0        -0.640863       -17.4388
    2    1       -81.886574     -2228.2470
    3    1       -12.354892      -336.1937
    4    1        -1.844122       -50.1811
    3    2        -7.101714      -193.2475
    4    2        -0.726930       -19.7808


  List of ionic basis orbitals and eigenvalues:
    n    l      energy [Ha]    energy [eV]    outer radius [A]
    4    2        -0.726920       -19.7805       5.008334
    5    1        -0.469561       -12.7774       5.455794
    5    0        -0.640774       -17.4363       5.389503

 
  Zr                   hydrogenic:
 
  List of hydrogenic basis orbitals: 
    n    l      effective z      eigenvalue [eV]  inner max. [A]     outer max. [A]     outer radius [A]   
    4    3         7.200000       -44.0822           1.169212           1.169212           5.008334
    5    4        10.400000       -58.8635           1.273673           1.273673           4.887365
 
 
  S                    ion:

  List of free ionic orbitals and eigenvalues:
    n    l      energy [Ha]    energy [eV]
    1    0       -89.703778     -2440.9640
    2    0        -8.775428      -238.7916
    3    0        -1.470343       -40.0101
    2    1        -6.747660      -183.6132
    3    1        -1.048627       -28.5346


  List of ionic basis orbitals and eigenvalues:
    n    l      energy [Ha]    energy [eV]    outer radius [A]
    3    2        -0.495605       -13.4861       5.386362
    3    0        -1.470336       -40.0099       3.967934

 
  S                    hydrogenic:
 
  List of hydrogenic basis orbitals: 
    n    l      effective z      eigenvalue [eV]  inner max. [A]     outer max. [A]     outer radius [A]   
    2    1         1.800000       -11.0118           1.168531           1.168531           5.452614
    4    3         7.000000       -41.6672           1.212182           1.212182           5.066981
    4    2         6.200000       -32.6848           0.582121           1.814567           5.386362
    5    4        10.800000       -63.4785           1.227092           1.227092           4.766538
 
  Creating atomic-like basis functions for current effective potential.

  Species Ba                  :

  List of atomic basis orbitals and eigenvalues:
    n    l      energy [Ha]    energy [eV]    outer radius [A]
    1    0     -1428.759176    -38878.5153       0.181180
    2    0      -218.156321     -5936.3355       0.481781
    3    0       -45.759571     -1245.1813       1.053516
    4    0        -8.961354      -243.8508       2.303735
    5    0        -1.235311       -33.6145       5.905331
    6    0        -0.117372        -3.1939       7.358861
    2    1      -195.503522     -5319.9215       0.493705
    3    1       -38.566500     -1049.4479       1.119920
    4    1        -6.648037      -180.9023       2.603304
    5    1        -0.686503       -18.6807       6.838410
    3    2       -28.146810      -765.9137       1.250174
    4    2        -3.294406       -89.6453       3.490975


  Species Zr                  :

  List of atomic basis orbitals and eigenvalues:
    n    l      energy [Ha]    energy [eV]    outer radius [A]
    1    0      -668.722933    -18196.8768       0.259930
    2    0       -91.076987     -2478.3309       0.725827
    3    0       -14.873383      -404.7254       1.771771
    4    0        -1.994212       -54.2653       4.541709
    5    0        -0.156460        -4.2575       5.455794
    2    1       -81.194469     -2209.4139       0.743792
    3    1       -11.667913      -317.5001       1.930067
    4    1        -1.184217       -32.2242       5.008334
    3    2        -6.414313      -174.5423       2.434714
    4    2        -0.125045        -3.4027       5.389503


  Species S                   :

  List of atomic basis orbitals and eigenvalues:
    n    l      energy [Ha]    energy [eV]    outer radius [A]
    1    0       -88.680731     -2413.1255       0.682391
    2    0        -7.781719      -211.7513       2.289014
    3    0        -0.633662       -17.2428       5.256262
    2    1        -5.751976      -156.5192       2.555240
    3    1        -0.257086        -6.9957       5.386362

  Assembling full basis from fixed parts.
  | Species Ba :   atomic orbital   1 s accepted.
  | Species Ba :   atomic orbital   2 s accepted.
  | Species Ba :   atomic orbital   3 s accepted.
  | Species Ba :   atomic orbital   4 s accepted.
  | Species Ba :   atomic orbital   5 s accepted.
  | Species Ba :   atomic orbital   6 s accepted.
  | Species Ba :    hydro orbital   4 s accepted.
  | Species Ba :   atomic orbital   2 p accepted.
  | Species Ba :   atomic orbital   3 p accepted.
  | Species Ba :   atomic orbital   4 p accepted.
  | Species Ba :   atomic orbital   5 p accepted.
  | Species Ba :    hydro orbital   3 p accepted.
  | Species Ba :   atomic orbital   3 d accepted.
  | Species Ba :   atomic orbital   4 d accepted.
  | Species Ba :    ionic orbital   5 d accepted.
  | Species Ba :    hydro orbital   4 f accepted.
  | Species Ba :    ionic orbital   4 f accepted.
  | Species Ba :    hydro orbital   5 g accepted.
  | Species Zr :   atomic orbital   1 s accepted.
  | Species Zr :   atomic orbital   2 s accepted.
  | Species Zr :   atomic orbital   3 s accepted.
  | Species Zr :   atomic orbital   4 s accepted.
  | Species Zr :    ionic orbital   5 s accepted.
  | Species Zr :   atomic orbital   5 s accepted.
  | Species Zr :   atomic orbital   2 p accepted.
  | Species Zr :   atomic orbital   3 p accepted.
  | Species Zr :   atomic orbital   4 p accepted.
  | Species Zr :    ionic orbital   5 p accepted.
  | Species Zr :   atomic orbital   3 d accepted.
  | Species Zr :    ionic orbital   4 d accepted.
  | Species Zr :   atomic orbital   4 d accepted.
  | Species Zr :    hydro orbital   4 f accepted.
  | Species Zr :    hydro orbital   5 g accepted.
  | Species S :   atomic orbital   1 s accepted.
  | Species S :   atomic orbital   2 s accepted.
  | Species S :    ionic orbital   3 s accepted.
  | Species S :   atomic orbital   3 s accepted.
  | Species S :   atomic orbital   2 p accepted.
  | Species S :   atomic orbital   3 p accepted.
  | Species S :    hydro orbital   2 p accepted.
  | Species S :    ionic orbital   3 d accepted.
  | Species S :    hydro orbital   4 d accepted.
  | Species S :    hydro orbital   4 f accepted.
  | Species S :    hydro orbital   5 g accepted.
 
  Basis size parameters after reduction:
  | Total number of radial functions:       44
  | Total number of basis functions :       98
 
  Per-task memory consumption for arrays in subroutine allocate_ext:
  |          16.450524MB.
  Testing on-site integration grid accuracy.
  |  Species  Function  <phi|h_atom|phi> (log., in eV)  <phi|h_atom|phi> (rad., in eV)
           1        1             -38878.5152842456             -38878.5102682710
           1        2              -5936.3355416432              -5936.3354463181
           1        3              -1245.1812725370              -1245.1812651319
           1        4               -243.8508498583               -243.8508475766
           1        5                -33.6145129113                -33.6145123744
           1        6                 -3.1953474132                 -3.1940995993
           1        7                  1.7217240859                  1.7400532086
           1        8              -5319.9215180604              -5319.9215128547
           1        9              -1049.4478540965              -1049.4478516474
           1       10               -180.9022912879               -180.9022896989
           1       11                -18.6806852844                -18.6806849603
           1       12                 -0.6584997172                 -0.6579606663
           1       13               -765.9136710812               -765.9136703559
           1       14                -89.6453457527                -89.6453448903
           1       15                 -1.8801763382                 -1.8802515933
           1       16                  8.1569476582                  8.1569486797
           1       17                  8.6054070843                  8.6053383614
           1       18                 17.5600091881                 17.5599879188
           2       19             -18196.8768435665             -18196.8755705220
           2       20              -2478.3309144498              -2478.3308916069
           2       21               -404.7253557491               -404.7253534742
           2       22                -54.2652640714                -54.2652635286
           2       23                 -3.7119764275                 -3.7119846577
           2       24                  4.5875772639                  4.5868905659
           2       25              -2209.4139097225              -2209.4139071812
           2       26               -317.5000788444               -317.5000777556
           2       27                -32.2241784576                -32.2241781542
           2       28                 -0.3319152745                 -0.3319660629
           2       29               -174.5423275335               -174.5423272575
           2       30                 -3.0504029429                 -3.0504025329
           2       31                  4.9970437712                  4.9966978803
           2       32                 16.8632595236                 16.8632598612
           2       33                 37.0867992037                 37.0867988501
           3       34              -2413.1254568977              -2413.1254096663
           3       35               -211.7513411281               -211.7513404762
           3       36                -16.9725280787                -16.9725279206
           3       37                  7.6024436204                  7.6024549059
           3       38               -156.5192206929               -156.5192205451
           3       39                 -6.9959757887                 -6.9959777655
           3       40                  6.8896462808                  6.8895564741
           3       41                  6.0214250550                  6.0214220200
           3       42                 19.6206468977                 19.6206494558
           3       43                 24.7008710786                 24.7008710738
           3       44                 47.5292252001                 47.5292260486

  Preparing densities etc. for the partition functions (integrals / Hartree potential).

  Preparations completed.
  max(cpu_time)          :      0.454 s.
  Wall clock time (cpu1) :      0.496 s.
------------------------------------------------------------

------------------------------------------------------------
          Begin self-consistency loop: Initialization.

          Date     :  20220728, Time     :  132841.635
------------------------------------------------------------

  Initializing index lists of integration centers etc. from given atomic structure:
  Mapping all atomic coordinates to central unit cell.

  Initializing the k-points
  | Number of k-points                             :       384
  | Consuming       2304 KiB for k_phase_exx.
  The eigenvectors in the calculations are COMPLEX.
  | K-points in task   0:         3
  | K-points in task   1:         3
  | K-points in task   2:         3
  | K-points in task   3:         3
  | K-points in task   4:         3
  | K-points in task   5:         3
  | K-points in task   6:         3
  | K-points in task   7:         3
  | K-points in task   8:         3
  | K-points in task   9:         3
  | K-points in task  10:         3
  | K-points in task  11:         3
  | K-points in task  12:         3
  | K-points in task  13:         3
  | K-points in task  14:         3
  | K-points in task  15:         3
  | K-points in task  16:         3
  | K-points in task  17:         3
  | K-points in task  18:         3
  | K-points in task  19:         3
  | K-points in task  20:         3
  | K-points in task  21:         3
  | K-points in task  22:         3
  | K-points in task  23:         3
  | K-points in task  24:         3
  | K-points in task  25:         3
  | K-points in task  26:         3
  | K-points in task  27:         3
  | K-points in task  28:         3
  | K-points in task  29:         3
  | K-points in task  30:         3
  | K-points in task  31:         3
  | K-points in task  32:         3
  | K-points in task  33:         3
  | K-points in task  34:         3
  | K-points in task  35:         3
  | K-points in task  36:         3
  | K-points in task  37:         3
  | K-points in task  38:         3
  | K-points in task  39:         3
  | K-points in task  40:         3
  | K-points in task  41:         3
  | K-points in task  42:         3
  | K-points in task  43:         3
  | K-points in task  44:         3
  | K-points in task  45:         3
  | K-points in task  46:         3
  | K-points in task  47:         3
  | K-points in task  48:         3
  | K-points in task  49:         3
  | K-points in task  50:         3
  | K-points in task  51:         3
  | K-points in task  52:         3
  | K-points in task  53:         3
  | K-points in task  54:         3
  | K-points in task  55:         3
  | K-points in task  56:         3
  | K-points in task  57:         3
  | K-points in task  58:         3
  | K-points in task  59:         3
  | K-points in task  60:         3
  | K-points in task  61:         3
  | K-points in task  62:         3
  | K-points in task  63:         3
  | K-points in task  64:         3
  | K-points in task  65:         3
  | K-points in task  66:         3
  | K-points in task  67:         3
  | K-points in task  68:         3
  | K-points in task  69:         3
  | K-points in task  70:         3
  | K-points in task  71:         3
  | K-points in task  72:         3
  | K-points in task  73:         3
  | K-points in task  74:         3
  | K-points in task  75:         3
  | K-points in task  76:         3
  | K-points in task  77:         3
  | K-points in task  78:         3
  | K-points in task  79:         3
  | K-points in task  80:         3
  | K-points in task  81:         3
  | K-points in task  82:         3
  | K-points in task  83:         3
  | K-points in task  84:         3
  | K-points in task  85:         3
  | K-points in task  86:         3
  | K-points in task  87:         3
  | K-points in task  88:         3
  | K-points in task  89:         3
  | K-points in task  90:         3
  | K-points in task  91:         3
  | K-points in task  92:         3
  | K-points in task  93:         3
  | K-points in task  94:         3
  | K-points in task  95:         3
  | K-points in task  96:         3
  | K-points in task  97:         3
  | K-points in task  98:         3
  | K-points in task  99:         3
  | K-points in task 100:         3
  | K-points in task 101:         3
  | K-points in task 102:         3
  | K-points in task 103:         3
  | K-points in task 104:         3
  | K-points in task 105:         3
  | K-points in task 106:         3
  | K-points in task 107:         3
  | K-points in task 108:         3
  | K-points in task 109:         3
  | K-points in task 110:         3
  | K-points in task 111:         3
  | K-points in task 112:         3
  | K-points in task 113:         3
  | K-points in task 114:         3
  | K-points in task 115:         3
  | K-points in task 116:         3
  | K-points in task 117:         3
  | K-points in task 118:         3
  | K-points in task 119:         3
  | K-points in task 120:         3
  | K-points in task 121:         3
  | K-points in task 122:         3
  | K-points in task 123:         3
  | K-points in task 124:         3
  | K-points in task 125:         3
  | K-points in task 126:         3
  | K-points in task 127:         3
  | Number of basis functions in the Hamiltonian integrals :      3780
  | Number of basis functions in a single unit cell        :        98
  | Number of centers in hartree potential         :       904
  | Number of centers in hartree multipole         :       484
  | Number of centers in electron density summation:       346
  | Number of centers in basis integrals           :       388
  | Number of centers in integrals                 :       126
  | Number of centers in hamiltonian               :       816
  | Consuming       2052 KiB for k_phase.
  | Number of super-cells (origin) [n_cells]                     : 2025
  | Number of super-cells (after PM_index) [n_cells]             : 342
  | Number of super-cells in hamiltonian [n_cells_in_hamiltonian]: 342
  | Size of matrix packed + index [n_hamiltonian_matrix_size] : 352311
  | Estimated reciprocal-space cutoff momentum G_max:         2.39262869 bohr^-1 .
  | Reciprocal lattice points for long-range Hartree potential:      66
  Partitioning the integration grid into batches with parallel hashing+maxmin method.
  | Number of batches:      628
  | Maximal batch size:     124
  | Minimal batch size:       2
  | Average batch size:      72.325
  | Standard deviation of batch sizes:      18.818

  Integration load balanced across   128 MPI tasks.
  Work distribution over tasks is as follows:
  Task     0 has        336 integration points.
  Task     1 has        337 integration points.
  Task     2 has        381 integration points.
  Task     3 has        332 integration points.
  Task     4 has        341 integration points.
  Task     5 has        367 integration points.
  Task     6 has        380 integration points.
  Task     7 has        392 integration points.
  Task     8 has        396 integration points.
  Task     9 has        376 integration points.
  Task    10 has        363 integration points.
  Task    11 has        320 integration points.
  Task    12 has        352 integration points.
  Task    13 has        329 integration points.
  Task    14 has        320 integration points.
  Task    15 has        331 integration points.
  Task    16 has        411 integration points.
  Task    17 has        355 integration points.
  Task    18 has        382 integration points.
  Task    19 has        336 integration points.
  Task    20 has        321 integration points.
  Task    21 has        323 integration points.
  Task    22 has        394 integration points.
  Task    23 has        378 integration points.
  Task    24 has        327 integration points.
  Task    25 has        361 integration points.
  Task    26 has        369 integration points.
  Task    27 has        339 integration points.
  Task    28 has        414 integration points.
  Task    29 has        329 integration points.
  Task    30 has        342 integration points.
  Task    31 has        378 integration points.
  Task    32 has        365 integration points.
  Task    33 has        339 integration points.
  Task    34 has        370 integration points.
  Task    35 has        344 integration points.
  Task    36 has        336 integration points.
  Task    37 has        393 integration points.
  Task    38 has        364 integration points.
  Task    39 has        338 integration points.
  Task    40 has        349 integration points.
  Task    41 has        396 integration points.
  Task    42 has        381 integration points.
  Task    43 has        335 integration points.
  Task    44 has        339 integration points.
  Task    45 has        377 integration points.
  Task    46 has        326 integration points.
  Task    47 has        364 integration points.
  Task    48 has        361 integration points.
  Task    49 has        331 integration points.
  Task    50 has        393 integration points.
  Task    51 has        397 integration points.
  Task    52 has        360 integration points.
  Task    53 has        340 integration points.
  Task    54 has        336 integration points.
  Task    55 has        352 integration points.
  Task    56 has        333 integration points.
  Task    57 has        377 integration points.
  Task    58 has        349 integration points.
  Task    59 has        340 integration points.
  Task    60 has        379 integration points.
  Task    61 has        329 integration points.
  Task    62 has        333 integration points.
  Task    63 has        416 integration points.
  Task    64 has        338 integration points.
  Task    65 has        402 integration points.
  Task    66 has        386 integration points.
  Task    67 has        342 integration points.
  Task    68 has        325 integration points.
  Task    69 has        347 integration points.
  Task    70 has        322 integration points.
  Task    71 has        328 integration points.
  Task    72 has        387 integration points.
  Task    73 has        325 integration points.
  Task    74 has        376 integration points.
  Task    75 has        424 integration points.
  Task    76 has        334 integration points.
  Task    77 has        405 integration points.
  Task    78 has        330 integration points.
  Task    79 has        322 integration points.
  Task    80 has        337 integration points.
  Task    81 has        365 integration points.
  Task    82 has        350 integration points.
  Task    83 has        389 integration points.
  Task    84 has        351 integration points.
  Task    85 has        320 integration points.
  Task    86 has        342 integration points.
  Task    87 has        379 integration points.
  Task    88 has        322 integration points.
  Task    89 has        381 integration points.
  Task    90 has        359 integration points.
  Task    91 has        333 integration points.
  Task    92 has        373 integration points.
  Task    93 has        339 integration points.
  Task    94 has        361 integration points.
  Task    95 has        350 integration points.
  Task    96 has        325 integration points.
  Task    97 has        379 integration points.
  Task    98 has        391 integration points.
  Task    99 has        395 integration points.
  Task   100 has        320 integration points.
  Task   101 has        361 integration points.
  Task   102 has        320 integration points.
  Task   103 has        378 integration points.
  Task   104 has        324 integration points.
  Task   105 has        391 integration points.
  Task   106 has        320 integration points.
  Task   107 has        332 integration points.
  Task   108 has        363 integration points.
  Task   109 has        347 integration points.
  Task   110 has        356 integration points.
  Task   111 has        320 integration points.
  Task   112 has        342 integration points.
  Task   113 has        327 integration points.
  Task   114 has        381 integration points.
  Task   115 has        337 integration points.
  Task   116 has        329 integration points.
  Task   117 has        329 integration points.
  Task   118 has        326 integration points.
  Task   119 has        339 integration points.
  Task   120 has        361 integration points.
  Task   121 has        385 integration points.
  Task   122 has        364 integration points.
  Task   123 has        394 integration points.
  Task   124 has        337 integration points.
  Task   125 has        378 integration points.
  Task   126 has        322 integration points.
  Task   127 has        349 integration points.
[...]
     75       1.00000                     -11.144461         -11.144528             3.112670
     76       1.00000                     -11.144461         -11.144528             0.000000
     77       0.00000                      -6.458650          -6.441474             4.703054
     78       0.00000                      -6.458650          -6.441474             0.000000
     79       0.00000                      -6.187580          -6.233836             0.207638
     80       0.00000                      -6.187580          -6.233836             0.000000
     81       0.00000                      -6.187538          -6.141086             0.092750
     82       0.00000                      -6.187538          -6.141086             0.000000
     83       0.00000                      -6.035781          -6.038265             0.102821
     84       0.00000                      -6.035781          -6.038265             0.000000
     85       0.00000                      -5.341617          -5.395013             0.643252
     86       0.00000                      -5.341617          -5.395013             0.000000
     87       0.00000                      -5.341600          -5.289758             0.105255
     88       0.00000                      -5.341600          -5.289758             0.000000
     89       0.00000                      -4.520567          -4.545912             0.743846
     90       0.00000                      -4.520567          -4.545912             0.000000
     91       0.00000                      -4.520404          -4.487976             0.057936
     92       0.00000                      -4.520404          -4.487976             0.000000
     93       0.00000                      -2.090694          -2.125251             2.362725
     94       0.00000                      -2.090694          -2.125251             0.000000
     95       0.00000                      -2.090461          -2.054644             0.070606
     96       0.00000                      -2.090461          -2.054644             0.000000
     97       0.00000                       2.899787           2.900888             4.955533
     98       0.00000                       2.899787           2.900888             0.000000
     99       0.00000                       5.427814           5.427865             2.526977
    100       0.00000                       5.427814           5.427865             0.000000
    101       0.00000                       7.047009           7.047392             1.619527
    102       0.00000                       7.047009           7.047392             0.000000

  What follows are estimated values for band gap, HOMO, LUMO, etc.
  | They are estimated on a discrete k-point grid and not necessarily exact.
  | For converged numbers, create a DOS and/or band structure plot on a denser k-grid.

  Highest occupied state (VBM) at     -7.37901048 eV (relative to internal zero)
  | Occupation number:      0.66383799
  | K-point:     329 at    0.750000    0.750000    0.666667 (in units of recip. lattice)

  Lowest unoccupied state (CBM) at    -7.28000436 eV (relative to internal zero)
  | Occupation number:      0.00871864
  | K-point:     273 at    0.625000    0.625000    0.333333 (in units of recip. lattice)

  ESTIMATED overall HOMO-LUMO gap:      0.09900612 eV between HOMO at k-point 329 and LUMO at k-point 273
  | This appears to be an indirect band gap.
  | Smallest direct gap :      0.21248534 eV for k_point 329 at    0.750000    0.750000    0.666667 (in units of recip. lattice)
  However, this system has fractional occupation numbers. Since we use a finite k-point grid,
  this material is metallic within the approximate finite broadening function (occupation_type)
  applied to determine the occupation numbers.

  Spin-orbit coupling                                     :  max(cpu_time)    wall_clock(cpu1)
  | Computing matrix elements for SOC operator            :          0.446               0.454
  | Constructing second-variational Hamiltonian           :          0.007               0.009
  | Diagonalizing second-variational Hamiltonian          :          0.013               0.012
  | Syncing data and calculating occupations              :          0.005               0.005
  | Writing out data, calculating band gaps, etc.         :          0.001               0.000
  | Total SOC time                                        :          0.480               0.481

  Partial memory accounting:
  | Current value for overall tracked memory usage:
  |   Minimum:       32.447 MB (on task  19)
  |   Maximum:       62.448 MB (on task  49)
  |   Average:       45.896 MB
  | Peak value for overall tracked memory usage:
  |   Minimum:       62.195 MB (on task  19 after allocating tmp2_aux)
  |   Maximum:      119.406 MB (on task 108 after allocating tmp2_aux)
  |   Average:       89.332 MB
  | Largest tracked array allocation so far:
  |   Minimum:       32.037 MB (aux_mat on task  19)
  |   Maximum:       54.784 MB (ovlp3fn for atom on task  49)
  |   Average:       41.667 MB
  Note:  These values currently only include a subset of arrays which are explicitly tracked.
  The "true" memory usage will be greater.
 ------------------------------------------------------------

  -------------------------------------------------------------------
  Writing the requested band structure output (LAPACK version):
  -------------------------------------------------------------------

  Integrating Hamiltonian matrix: batch-based integration.
  Time summed over all CPUs for integration: real work        8.125 s, elapsed        9.839 s
  Integrating SOC matrix: batch-based integration p2 version.
  Allocating        0.119 MB for dist_tab
  Allocating        0.119 MB for dist_tab_sq
  Allocating        0.358 MB for dir_tab
  Allocating        0.021 MB for i_basis_fns
  Allocating        0.680 MB for i_basis_fns_inv
  Allocating        0.021 MB for i_atom_fns
  Allocating        3.420 MB for gradient_basis_wave
  Allocating        0.007 MB for ylm_tab
  Allocating        0.002 MB for radial_wave
  Allocating        0.002 MB for radial_wave_deriv
  Allocating        0.014 MB for i_basis
  Allocating       11.078 MB for soc_shell
  Allocating        0.022 MB for cartesians
  Allocating        0.022 MB for sum_gradient
  Allocating        0.045 MB for sum_hessian
  Allocating        0.001 MB for potential_shell

  Treating all   58 k-points in band plot segment #   1:


  Scalar-relativistic "band gap" along reciprocal space direction number:    1
  | Lowest unoccupied state:      -7.34068067 eV
  | Highest occupied state :      -7.36645843 eV
  | Energy difference      :       0.02577776 eV


Spin-orbit-coupled "band gap" along reciprocal space direction number:    1
  | Lowest unoccupied state:      -7.32997072 eV
  | Highest occupied state :      -7.36571687 eV
  | Energy difference      :       0.03574615 eV


  Treating all   34 k-points in band plot segment #   2:


  Scalar-relativistic "band gap" along reciprocal space direction number:    2
  | Lowest unoccupied state:      -6.99950954 eV
  | Highest occupied state :      -7.98443994 eV
  | Energy difference      :       0.98493040 eV


Spin-orbit-coupled "band gap" along reciprocal space direction number:    2
  | Lowest unoccupied state:      -6.99924056 eV
  | Highest occupied state :      -7.97137007 eV
  | Energy difference      :       0.97212951 eV


  Treating all   67 k-points in band plot segment #   3:


  Scalar-relativistic "band gap" along reciprocal space direction number:    3
  | Lowest unoccupied state:      -7.32931814 eV
  | Highest occupied state :      -7.38543885 eV
  | Energy difference      :       0.05612071 eV


Spin-orbit-coupled "band gap" along reciprocal space direction number:    3
  | Lowest unoccupied state:      -7.31834548 eV
  | Highest occupied state :      -7.38496917 eV
  | Energy difference      :       0.06662369 eV


  Treating all   31 k-points in band plot segment #   4:


  Scalar-relativistic "band gap" along reciprocal space direction number:    4
  | Lowest unoccupied state:      -7.34951831 eV
  | Highest occupied state :      -7.38370118 eV
  | Energy difference      :       0.03418287 eV


Spin-orbit-coupled "band gap" along reciprocal space direction number:    4
  | Lowest unoccupied state:      -7.34022721 eV
  | Highest occupied state :      -7.38199007 eV
  | Energy difference      :       0.04176285 eV


  Treating all   58 k-points in band plot segment #   5:


  Scalar-relativistic "band gap" along reciprocal space direction number:    5
  | Lowest unoccupied state:      -6.79085992 eV
  | Highest occupied state :      -7.42603407 eV
  | Energy difference      :       0.63517416 eV


Spin-orbit-coupled "band gap" along reciprocal space direction number:    5
  | Lowest unoccupied state:      -6.78934119 eV
  | Highest occupied state :      -7.42396648 eV
  | Energy difference      :       0.63462529 eV


  Treating all   34 k-points in band plot segment #   6:


  Scalar-relativistic "band gap" along reciprocal space direction number:    6
  | Lowest unoccupied state:      -7.30987374 eV
  | Highest occupied state :      -7.40681369 eV
  | Energy difference      :       0.09693995 eV


Spin-orbit-coupled "band gap" along reciprocal space direction number:    6
  | Lowest unoccupied state:      -7.31387929 eV
  | Highest occupied state :      -7.39133009 eV
  | Energy difference      :       0.07745080 eV


  Treating all   67 k-points in band plot segment #   7:


  Scalar-relativistic "band gap" along reciprocal space direction number:    7
  | Lowest unoccupied state:      -7.35715466 eV
  | Highest occupied state :      -7.38024631 eV
  | Energy difference      :       0.02309166 eV


Spin-orbit-coupled "band gap" along reciprocal space direction number:    7
  | Lowest unoccupied state:      -7.36147180 eV
  | Highest occupied state :      -7.37152472 eV
  | Energy difference      :       0.01005292 eV


  Treating all   31 k-points in band plot segment #   8:


  Scalar-relativistic "band gap" along reciprocal space direction number:    8
  | Lowest unoccupied state:      -6.40862908 eV
  | Highest occupied state :      -7.98443994 eV
  | Energy difference      :       1.57581086 eV


Spin-orbit-coupled "band gap" along reciprocal space direction number:    8
  | Lowest unoccupied state:      -6.42325145 eV
  | Highest occupied state :      -7.97137007 eV
  | Energy difference      :       1.54811861 eV


  Treating all   31 k-points in band plot segment #   9:


  Scalar-relativistic "band gap" along reciprocal space direction number:    9
  | Lowest unoccupied state:      -7.34385515 eV
  | Highest occupied state :      -7.38420261 eV
  | Energy difference      :       0.04034746 eV


Spin-orbit-coupled "band gap" along reciprocal space direction number:    9
  | Lowest unoccupied state:      -7.36247803 eV
  | Highest occupied state :      -7.39417770 eV
  | Energy difference      :       0.03169967 eV

  Scalar-relativistic "band gap" of total set of bands:
  | Lowest unoccupied state:      -7.35715466 eV
  | Highest occupied state :      -7.36645843 eV
  | Energy difference      :       0.00930377 eV

  Spin-orbit-coupled "band gap" of total set of bands:
  | Lowest unoccupied state:      -7.36247803 eV
  | Highest occupied state :      -7.36571687 eV
  | Energy difference      :       0.00323884 eV


  Band Structure                                          :  max(cpu_time) wall_clock(cpu1)
  | Total Time                                            :          3.825            3.915
------------------------------------------------------------

------------------------------------------------------------------------------
  Final output of selected total energy values:

  The following output summarizes some interesting total energy values
  at the end of a run (AFTER all relaxation, molecular dynamics, etc.).

  | Total energy of the DFT / Hartree-Fock s.c.f. calculation      :        -197567.055968887 eV
  | Final zero-broadening corrected energy (caution - metals only) :        -197567.056443106 eV
  | Total energy after non-SC SOC correction (DO NOT USE)          :        -197567.133903129 eV
  | For reference only, the value of 1 Hartree used in FHI-aims is :             27.211384500 eV
  | For reference only, the overall average (free atom contribution
  | + realspace contribution) of the electrostatic potential after
  | s.c.f. convergence is                                          :            -24.648295488 eV

  Before relying on these values, please be sure to understand exactly which
  total energy value is referred to by a given number. Different objects may
  all carry the same name 'total energy'. Definitions:

  Total energy of the DFT / Hartree-Fock s.c.f. calculation:
  | Note that this energy does not include ANY quantities calculated after the
  | s.c.f. cycle, in particular not ANY RPA, MP2, etc. many-body perturbation terms.

  Final zero-broadening corrected energy:
  | For metallic systems only, a broadening of the occupation numbers at the Fermi
  | level can be extrapolated back to zero broadening by an electron-gas inspired
  | formula. For all systems that are not real metals, this value can be
  | meaningless and should be avoided.

------------------------------------------------------------------------------
  Methods described in the following list of references were used in this FHI-aims run.
  If you publish the results, please make sure to cite these reference if they apply.
  FHI-aims is an academic code, and for our developers (often, Ph.D. students
  and postdocs), scientific credit in the community is essential.
  Thank you for helping us!

  For any use of FHI-aims, please cite:

    Volker Blum, Ralf Gehrke, Felix Hanke, Paula Havu, Ville Havu,
    Xinguo Ren, Karsten Reuter, and Matthias Scheffler
    'Ab initio molecular simulations with numeric atom-centered orbitals'
    Computer Physics Communications 180, 2175-2196 (2009)
    http://dx.doi.org/10.1016/j.cpc.2009.06.022


  For Hartree-Fock, hybrid functionals, or many-body perturbation theory used in your run, please cite:

    Xinguo Ren, Patrick Rinke, Volker Blum, Juergen Wieferink, Alex Tkatchenko,
    Andrea Sanfilippo, Karsten Reuter, and Matthias Scheffler,
    'Resolution-of-identity approach to Hartree-Fock, hybrid density functionals,
    RPA, MP2, and GW with numeric atom-centered orbital basis functions'
    New Journal of Physics 14, 053020 (2012).
    http://dx.doi.org/10.1088/1367-2630/14/5/053020


  The provided symmetry information was generated with SPGlib:

    Atsushi Togo, Yusuke Seto, Dimitar Pashov
    SPGlib 1.7.3 obtained from http://spglib.sourceforge.net
    Copyright (C) 2008 Atsushi Togo


  For second-variational spin-orbit coupling used in your run, please cite:

    William P. Huhn and Volker Blum,
    'One-hundred-three compound band-structure benchmark of post-self-consistent'
    'spin-orbit coupling treatments in density functional theory'
    Phys. Rev. Materials 1, 033803 (2017).


  The ELSI infrastructure was used in your run to solve the Kohn-Sham electronic structure.
  Please check out http://elsi-interchange.org to learn more.
  If scalability is important for your project, please acknowledge ELSI by citing:

    V. W-z. Yu, F. Corsetti, A. Garcia, W. P. Huhn, M. Jacquelin, W. Jia,
    B. Lange, L. Lin, J. Lu, W. Mi, A. Seifitokaldani, A. Vazquez-Mayagoitia,
    C. Yang, H. Yang, and V. Blum
    'ELSI: A unified software interface for Kohn-Sham electronic structure solvers'
    Computer Physics Communications 222, 267-285 (2018).
    http://dx.doi.org/10.1016/j.cpc.2017.09.007


  For the real-space grid partitioning and parallelization used in this calculation, please cite:

    Ville Havu, Volker Blum, Paula Havu, and Matthias Scheffler,
    'Efficient O(N) integration for all-electron electronic structure calculation'
    'using numerically tabulated basis functions'
    Journal of Computational Physics 228, 8367-8379 (2009).
    http://dx.doi.org/10.1016/j.jcp.2009.08.008


  The high-level electronic structure method used in your calculation
  employed our efficient localized resolution of identity for the Coulomb operator.
  Some calculations, especially large-scale hybrid density functional theory,
  are only possible thanks to this development. For this feature, please cite:

    Arvid Ihrig, Juergen Wieferink, Igor Ying Zhang, Matti Ropo, Xinguo Ren,
    Patrick Rinke, Matthias Scheffler, and Volker Blum,
    'Accurate localized resolution of identity approach for linear-scaling
    hybrid density functionals and for many-body perturbation theory'
    New Journal of Physics 117, 093020 (2015).
    http://dx.doi.org/10.1088/1367-2630/17/9/093020

  Of course, there are many other important community references, e.g., those cited in the
  above references. Our list is limited to references that describe implementations in the
  FHI-aims code. The reason is purely practical (length of this list) - please credit others as well.

------------------------------------------------------------
          Leaving FHI-aims.
          Date     :  20220728, Time     :  133753.340

          Computational steps:
          | Number of self-consistency cycles          :           20
          | Number of SCF (re)initializations          :            1

          Detailed time accounting                     :  max(cpu_time)    wall_clock(cpu1)
          | Total time                                 :      550.692 s         552.713 s
          | Preparation time                           :        0.454 s           0.496 s
          | Boundary condition initalization           :        0.148 s           0.148 s
          | Grid partitioning                          :        0.014 s           0.015 s
          | Preloading free-atom quantities on grid    :        0.022 s           0.021 s
          | Free-atom superposition energy             :        0.002 s           0.002 s
          | Total time for integrations                :        1.856 s           1.857 s
          | Product basis setup: Total time            :       33.273 s          33.633 s
          | Total time evaluating exchange matrix      :      506.138 s         507.119 s
          | Total time for solution of K.-S. equations :        0.409 s           0.526 s
          | Total time for density update              :        3.153 s           3.152 s
          | Total time for mixing                      :        0.080 s           0.041 s
          | Total time for Hartree multipole update    :        0.018 s           0.018 s
          | Total time for Hartree multipole sum       :        0.620 s           0.618 s
          | Total time for total energy evaluation     :        0.005 s           0.008 s
          | Total time for scaled ZORA corrections     :        0.000 s           0.000 s
          | Total time for perturbative SOC            :        0.480 s           0.481 s
          | Total time for band structures, DOS        :        3.910 s           3.915 s

          Partial memory accounting:
          | Residual value for overall tracked memory usage across tasks:     0.000000 MB (should be 0.000000 MB)
          | Peak values for overall tracked memory usage:
          |   Minimum:       62.195 MB (on task  19 after allocating tmp2_aux)
          |   Maximum:      119.406 MB (on task 108 after allocating tmp2_aux)
          |   Average:       89.332 MB
          | Largest tracked array allocation:
          |   Minimum:       32.037 MB (aux_mat on task  19)
          |   Maximum:       54.784 MB (ovlp3fn for atom on task  49)
          |   Average:       41.667 MB
          Note:  These values currently only include a subset of arrays which are explicitly tracked.
          The "true" memory usage will be greater.

          Have a nice day.
------------------------------------------------------------
