------------------------------------------------------------
          Invoking FHI-aims ...

          When using FHI-aims, please cite the following reference:

            Volker Blum, Ralf Gehrke, Felix Hanke, Paula Havu,
            Ville Havu, Xinguo Ren, Karsten Reuter, and Matthias Scheffler,
            'Ab Initio Molecular Simulations with Numeric Atom-Centered Orbitals',
            Computer Physics Communications 180, 2175-2196 (2009)

          In addition, many other developments in FHI-aims are likely important for
          your particular application. A partial list of references is given at the end of
          this file. Thank you for giving credit to the authors of these developments.

          For any questions about FHI-aims, please visit our slack channel at

            https://fhi-aims.slack.com

          and our main development and support site at

            https://aims-git.rz-berlin.mpg.de .

          The latter site, in particular, has a wiki to collect information, as well
          as an issue tracker to log discussions, suggest improvements, and report issues
          or bugs. https://aims-git.rz-berlin.mpg.de is also the main development site
          of the project and all new and updated code versions can be obtained there.
          Please send an email to aims-coordinators@fhi-berlin.mpg.de and we will add
          you to these sites. They are for you and everyone is welcome there.

------------------------------------------------------------



  Date     :  20220514, Time     :  230908.088
  Time zero on CPU 1             :   0.139391700000000E+01  s.
  Internal wall clock time zero  :           421801748.088  s.

  FHI-aims created a unique identifier for this run for later identification
  aims_uuid : D226F613-AC81-44A6-A2D3-EF192B78ECC1

  Build configuration of the current instance of FHI-aims
  -------------------------------------------------------
  FHI-aims version      : 220115
  Commit number         : 912d67166
  CMake host system     : Linux-5.4.0-96-generic
  CMake version         : 3.16.3
  Fortran compiler      : /opt/intel/oneapi/mpi/2021.5.0/bin/mpiifort (Intel) version 20.2.5.20211109
  Fortran compiler flags: -O3 -ip -fp-model precise
  C compiler            : /opt/intel/oneapi/compiler/2022.0.1/linux/bin/intel64/icc (Intel) version 20.2.5.20211109
  C compiler flags      : -O3 -ip -fp-model precise -std=gnu99
  ELPA2 kernel          : AVX2
  Using MPI
  Using ScaLAPACK
  Using LibXC
  Using i-PI
  Using RLSY
  Linking against: /opt/intel/oneapi/mkl/2022.0.1/lib/intel64/libmkl_intel_lp64.so
                   /opt/intel/oneapi/mkl/2022.0.1/lib/intel64/libmkl_sequential.so
                   /opt/intel/oneapi/mkl/2022.0.1/lib/intel64/libmkl_core.so
                   /opt/intel/oneapi/mkl/2022.0.1/lib/intel64/libmkl_blacs_intelmpi_lp64.so
                   /opt/intel/oneapi/mkl/2022.0.1/lib/intel64/libmkl_scalapack_lp64.so

  Using       10 parallel tasks.
  Task        0 on host c21000127-lnx reporting.
  Task        1 on host c21000127-lnx reporting.
  Task        2 on host c21000127-lnx reporting.
  Task        3 on host c21000127-lnx reporting.
  Task        4 on host c21000127-lnx reporting.
  Task        5 on host c21000127-lnx reporting.
  Task        6 on host c21000127-lnx reporting.
  Task        7 on host c21000127-lnx reporting.
  Task        8 on host c21000127-lnx reporting.
  Task        9 on host c21000127-lnx reporting.

  Performing system and environment tests:
  *** Environment variable OMP_NUM_THREADS is not set
  *** For performance reasons you might want to set it to 1
  | Checking for ScaLAPACK...
  | Testing pdtran()...
  | All pdtran() tests passed.

  Obtaining array dimensions for all initial allocations:
  
  -----------------------------------------------------------------------
  Parsing control.in (first pass over file, find array dimensions only).
  The contents of control.in will be repeated verbatim below
  unless switched off by setting 'verbatim_writeout .false.' .
  in the first line of control.in .
  -----------------------------------------------------------------------
  
  xc               hse06 0.11
  hse_unit bohr-1
  charge           0.
  spin             none
  occupation_type  gaussian 0.1
  relativistic atomic_zora scalar
  sc_accuracy_rho       1E-6
  ################################################################################
  #
  #  FHI-aims code project
  #  Volker Blum, Fritz Haber Institute Berlin, 2009
  #
  #  Suggested "tight" defaults for Ba atom (to be pasted into control.in file)
  #
  #  The onset of the cutoff pot'l WAS set to 8 A by default, because the neutral
  #  Ba atom is a large atom. However, this is very expensive. The radius should be
  #  much smaller in real-world situations, where Ba will be ionic. Please check
  #  and reduce the cutoff radius explicitly.
  #
  #  2015/11/12 : f and g functions from tier2 added to default basis set choice.
  #               These functions make a difference in the "delta test".
  #               Reduced the default cutoff radius to 6AA. The free-atom 6s function
  #               requires more. However, 6AA is already VERY expensive for
  #               any production calculations. In fact, revisit this choice for
  #               ionic systems to see if a smaller cutoff radius will do.
  #
  ################################################################################
    species          Ba
  #     global species definitions
      nucleus        56
      mass           137.327
  #
      l_hartree      6
  #
      cut_pot        6.0  2.0  1.0
      basis_dep_cutoff    1e-4
  #
      radial_base    65  7.0
      radial_multiplier  2
      angular_grids specified
        division   0.6752  110
        division   0.9746  194
        division   1.2241  302
        division   1.3850  434
  #      division   1.4734  590
  #      division   1.6010  770
  #      division   4.8366  974
  #      outer_grid  974
        outer_grid  434
  ################################################################################
  #
  #  Definition of "minimal" basis
  #
  ################################################################################
  #     valence basis states
      valence      6  s   2.
      valence      5  p   6.
      valence      4  d  10.
  #     ion occupancy
      ion_occ      6  s   1.
      ion_occ      5  p   6.
      ion_occ      4  d  10.
  ################################################################################
  #
  #  Suggested additional basis functions. For production calculations,
  #  uncomment them one after another (the most important basis functions are
  #  listed first).
  #
  #  Constructed for dimers: 2.65, 3.00, 3.50, 4.40, 5.50 Ang
  #
  ################################################################################
  #  "First tier" - improvements: -1277.43 meV to -9.16 meV
       ionic 5 d auto
       ionic 4 f auto
       hydro 3 p 2.7
       hydro 4 s 3.3
  #  "Second tier" - improvements: -64.04 (!) meV to -0.25 meV
       hydro 4 f 5.8
       hydro 5 g 7.4
  #     hydro 4 d 4.5
  #     hydro 6 h 11.2
  #     hydro 5 p 6.6
  #     hydro 2 s 3.2
  #  "Third tier" - max. impr. -1.16 meV, min. impr. -0.08 meV
  #     hydro 5 f 7.4
  #     hydro 5 g 10.8
  #     hydro 4 d 2.3
  #     hydro 4 p 3.7
  #     hydro 5 s 4.0
  #  Further functions - impr. -0.35 meV and below
  #     hydro 5 d 3.5
  #     hydro 6 d 0.4
  #     hydro 2 p 2.5
  #     hydro 5 f 12
  #     hydro 6 d 8.8
  ################################################################################
  #
  #  FHI-aims code project
  #  Volker Blum, Fritz Haber Institute Berlin, 2009
  #
  #  Suggested "tight" defaults for Zr atom (to be pasted into control.in file)
  #
  ################################################################################
    species          Zr
  #     global species definitions
      nucleus        40
      mass           91.224
  #
      l_hartree      6
  #
      cut_pot        4.0  2.0  1.0
      basis_dep_cutoff    1e-4
  #
      radial_base    58  7.0
      radial_multiplier  2
      angular_grids specified
        division   0.3653   50
        division   0.8035  110
        division   1.2273  194
        division   1.4586  302
        division   1.6764  434
  #      division   1.9671  590
  #      division   2.1961  770
  #      division   2.3240  974
  #      division   3.4772 1202
  #      outer_grid  974
        outer_grid  434
  ################################################################################
  #
  #  Definition of "minimal" basis
  #
  ################################################################################
  #     valence basis states
      valence      5  s   2.
      valence      4  p   6.
      valence      4  d   2.
  #     ion occupancy
      ion_occ      5  s   1.
      ion_occ      4  p   6.
      ion_occ      4  d   1.
  ################################################################################
  #
  #  Suggested additional basis functions. For production calculations,
  #  uncomment them one after another (the most important basis functions are
  #  listed first).
  #
  #  Constructed for dimers: 1.9, 2.25, 3.00, 4.00 Ang
  #
  ################################################################################
  #  "First tier" - improvements: -605.96 meV to -18.06 meV
       hydro 4 f 7.2
       ionic 4 d auto
       ionic 5 p auto
       hydro 5 g 10.4
       ionic 5 s auto
  #  "Second tier" - improvements: -32.47 meV to -1.41 meV
  #     hydro 4 f 10.4
  #     hydro 6 h 14.8
  #     hydro 4 d 6.2
  #     hydro 4 p 4.4
  #     hydro 4 f 20
  #     hydro 5 s 6
  #  "Third tier" - improvements: -1.99 meV and lower.
  #     hydro 4 f 5.8
  #     hydro 5 g 10.8
  #     hydro 2 p 1
  #     hydro 3 d 8
  #     hydro 6 h 14.4
  #     hydro 1 s 0.9
  #  Further functions (approx -0.40 meV and below possible)
  ################################################################################
  #
  #  FHI-aims code project
  #  Volker Blum, Fritz Haber Institute Berlin, 2009
  #
  #  Suggested "tight" defaults for S atom (to be pasted into control.in file)
  #
  #  Revised Jan 04, 2011, following tests (SiC) done by Lydia Nemec:
  #     d and g functions of tier 2 now enabled by default.
  #
  ################################################################################
    species        S
  #     global species definitions
      nucleus             16
      mass                32.065
  #
      l_hartree           6
  #
      cut_pot             4.0          2.0  1.0
      basis_dep_cutoff    1e-4
  #
      radial_base         44 7.0
      radial_multiplier   2
      angular_grids       specified
        division   0.4665  110
        division   0.5810  194
        division   0.7139  302
        division   0.8274  434
  #      division   0.9105  590
  #      division   1.0975  770
  #      division   1.2028  974
  #      outer_grid  974
        outer_grid  434
  ################################################################################
  #
  #  Definition of "minimal" basis
  #
  ################################################################################
  #     valence basis states
      valence      3  s   2.
      valence      3  p   4.
  #     ion occupancy
      ion_occ      3  s   1.
      ion_occ      3  p   3.
  ################################################################################
  #
  #  Suggested additional basis functions. For production calculations,
  #  uncomment them one after another (the most important basis functions are
  #  listed first).
  #
  #  Constructed for dimers: 1.6 A, 1.9 A, 2.5 A, 3.25 A, 4.0 A
  #
  ################################################################################
  #  "First tier" - improvements: -652.81 meV to -45.53 meV
       ionic 3 d auto
       hydro 2 p 1.8
       hydro 4 f 7
       ionic 3 s auto
  #  "Second tier" - improvements: -30.20 meV to -1.74 meV
       hydro 4 d 6.2
       hydro 5 g 10.8
  #     hydro 4 p 4.9
  #     hydro 5 f 10
  #     hydro 1 s 0.8
  #  "Third tier" - improvements: -1.04 meV to -0.20 meV
  #     hydro 3 d 3.9
  #     hydro 3 d 2.7
  #     hydro 5 g 12
  #     hydro 4 p 10.4
  #     hydro 5 f 12.4
  #     hydro 2 s 1.9
  #  "Fourth tier" - improvements: -0.35 meV to -0.06 meV
  #     hydro 4 d 10.4
  #     hydro 4 p 7.2
  #     hydro 4 d 10
  #     hydro 5 g 19.2
  #     hydro 4 s 12
  
  ################################################################################
  #
  # For methods that use the localized form of the "resolution of identity" for
  # the two-electron Coulomb operator (RI_method LVL), particularly Hartree-Fock and
  # hybrid density functional calculations, the highest accuracy can be obtained by
  # uncommenting the line beginning with "for_aux"  below, thus adding an extra g radial
  # function to the construction of the product basis set for the expansion.
  # See Ref. New J. Phys. 17, 093020 (2015) for more information, particularly Figs. 1 and 6.
  #
  ################################################################################
  #
  # for_aux hydro 5 g 6.0
  
  -----------------------------------------------------------------------
  Completed first pass over input file control.in .
  -----------------------------------------------------------------------
  
  
  -----------------------------------------------------------------------
  Parsing geometry.in (first pass over file, find array dimensions only).
  The contents of geometry.in will be repeated verbatim below
  unless switched off by setting 'verbatim_writeout .false.' .
  in the first line of geometry.in .
  -----------------------------------------------------------------------
  
  #
  # This is the geometry file that corresponds to the current relaxation step.
  # If you do not want this file to be written, set the "write_restart_geometry" flag to .false.
  #  aims_uuid : 93402BF5-7E0A-4544-A2FD-416471DB15F2
  #
  atom       2.36746789      0.00000000      0.48499306 S
  atom       0.00000000      2.36746789      0.48499306 S
  atom      -2.36746789      0.00000000      0.48499306 S
  atom       0.00000000     -2.36746789      0.48499306 S
  atom       1.67404279     -1.67404279     -0.48499306 S
  atom      -1.67404279     -1.67404279     -0.48499306 S
  atom      -1.67404279      1.67404279     -0.48499306 S
  atom       1.67404279      1.67404279     -0.48499306 S
  #
  # What follows is the current estimated Hessian matrix constructed by the BFGS algorithm.
  # This is NOT the true Hessian matrix of the system.
  # If you do not want this information here, switch it off using the "hessian_to_restart_geometry" keyword.
  #
  trust_radius             0.2000000030
  hessian_file
  
  -----------------------------------------------------------------------
  Completed first pass over input file geometry.in .
  -----------------------------------------------------------------------
  

  Basic array size parameters:
  | Number of species                 :        3
  | Number of atoms                   :        8
  | Max. basis fn. angular momentum   :        4
  | Max. atomic/ionic basis occupied n:        6
  | Max. number of basis fn. types    :        3
  | Max. radial fns per species/type  :       12
  | Max. logarithmic grid size        :     1460
  | Max. radial integration grid size :      131
  | Max. angular integration grid size:      434
  | Max. angular grid division number :        8
  | Radial grid for Hartree potential :     1460
  | Number of spin channels           :        1

------------------------------------------------------------
          Reading file control.in.
------------------------------------------------------------

  XC: Using HSE-functional with OMEGA =  0.110000E+00 <units>.
  XC: For the actual units (bohr^-1 or Angstrom^-1), see below.
  hse_unit: Unit for the HSE06 hybrid functional screening parameter set to bohr^(-1).
  Charge =   0.000000E+00: Neutral system requested explicitly.
  Spin treatment: No spin polarisation.
  Occupation type: Gaussian broadening, width =   0.100000E+00 eV.
  Scalar relativistic treatment of kinetic energy: on-site free-atom approximation to ZORA.
  Convergence accuracy of self-consistent charge density:  0.1000E-05
 
  Reading configuration options for species Ba                  .
  | Found nuclear charge :  56.0000
  | Found atomic mass :    137.327000000000      amu
  | Found l_max for Hartree potential  :   6
  | Found cutoff potl. onset [A], width [A], scale factor :    6.00000    2.00000    1.00000
  | Threshold for basis-dependent cutoff potential is   0.100000E-03
  | Found data for basic radial integration grid :    65 points, outermost radius =    7.000 A
  | Found multiplier for basic radial grid :   2
  | Found angular grid specification: user-specified.
  | Specified grid contains     5 separate shells.
  | Check grid settings after all constraints further below.
  | Found free-atom valence shell :  6 s   2.000
  | Found free-atom valence shell :  5 p   6.000
  | Found free-atom valence shell :  4 d  10.000
  | Found free-ion valence shell :  6 s   1.000
  | Found free-ion valence shell :  5 p   6.000
  | Found free-ion valence shell :  4 d  10.000
  | Found ionic basis function :  5 d , default cutoff radius.
  | Found ionic basis function :  4 f , default cutoff radius.
  | Found hydrogenic basis function :  3 p   2.700
  | Found hydrogenic basis function :  4 s   3.300
  | Found hydrogenic basis function :  4 f   5.800
  | Found hydrogenic basis function :  5 g   7.400
  Species Ba                  : Missing cutoff potential type.
  Defaulting to exp(1/x)/(1-x)^2 type cutoff potential.
  Species Ba: No 'logarithmic' tag. Using default grid for free atom:
  | Default logarithmic grid data [bohr] : 0.1000E-03 0.1000E+03 0.1012E+01
  | Will include ionic basis functions of  1.0-fold positive Ba                   ion.
  Species Ba: On-site basis accuracy parameter (for Gram-Schmidt orthonormalisation) not specified.
  Using default value basis_acc =  0.1000000E-03.
  Species Ba                  : Using default innermost maximum threshold i_radial=  2 for radial functions.
  Species Ba                  : Default cutoff onset for free atom density etc. : 0.60000000E+01 AA.
  Species Ba                  : Basic radial grid will be enhanced according to radial_multiplier =   2, to contain   131 grid points.
 
  Reading configuration options for species Zr                  .
  | Found nuclear charge :  40.0000
  | Found atomic mass :    91.2240000000000      amu
  | Found l_max for Hartree potential  :   6
  | Found cutoff potl. onset [A], width [A], scale factor :    4.00000    2.00000    1.00000
  | Threshold for basis-dependent cutoff potential is   0.100000E-03
  | Found data for basic radial integration grid :    58 points, outermost radius =    7.000 A
  | Found multiplier for basic radial grid :   2
  | Found angular grid specification: user-specified.
  | Specified grid contains     6 separate shells.
  | Check grid settings after all constraints further below.
  | Found free-atom valence shell :  5 s   2.000
  | Found free-atom valence shell :  4 p   6.000
  | Found free-atom valence shell :  4 d   2.000
  | Found free-ion valence shell :  5 s   1.000
  | Found free-ion valence shell :  4 p   6.000
  | Found free-ion valence shell :  4 d   1.000
  | Found hydrogenic basis function :  4 f   7.200
  | Found ionic basis function :  4 d , default cutoff radius.
  | Found ionic basis function :  5 p , default cutoff radius.
  | Found hydrogenic basis function :  5 g  10.400
  | Found ionic basis function :  5 s , default cutoff radius.
  Species Zr                  : Missing cutoff potential type.
  Defaulting to exp(1/x)/(1-x)^2 type cutoff potential.
  Species Zr: No 'logarithmic' tag. Using default grid for free atom:
  | Default logarithmic grid data [bohr] : 0.1000E-03 0.1000E+03 0.1012E+01
  | Will include ionic basis functions of  2.0-fold positive Zr                   ion.
  Species Zr: On-site basis accuracy parameter (for Gram-Schmidt orthonormalisation) not specified.
  Using default value basis_acc =  0.1000000E-03.
  Species Zr                  : Using default innermost maximum threshold i_radial=  2 for radial functions.
  Species Zr                  : Default cutoff onset for free atom density etc. : 0.40000000E+01 AA.
  Species Zr                  : Basic radial grid will be enhanced according to radial_multiplier =   2, to contain   117 grid points.
 
  Reading configuration options for species S                   .
  | Found nuclear charge :  16.0000
  | Found atomic mass :    32.0650000000000      amu
  | Found l_max for Hartree potential  :   6
  | Found cutoff potl. onset [A], width [A], scale factor :    4.00000    2.00000    1.00000
  | Threshold for basis-dependent cutoff potential is   0.100000E-03
  | Found data for basic radial integration grid :    44 points, outermost radius =    7.000 A
  | Found multiplier for basic radial grid :   2
  | Found angular grid specification: user-specified.
  | Specified grid contains     5 separate shells.
  | Check grid settings after all constraints further below.
  | Found free-atom valence shell :  3 s   2.000
  | Found free-atom valence shell :  3 p   4.000
  | Found free-ion valence shell :  3 s   1.000
  | Found free-ion valence shell :  3 p   3.000
  | Found ionic basis function :  3 d , default cutoff radius.
  | Found hydrogenic basis function :  2 p   1.800
  | Found hydrogenic basis function :  4 f   7.000
  | Found ionic basis function :  3 s , default cutoff radius.
  | Found hydrogenic basis function :  4 d   6.200
  | Found hydrogenic basis function :  5 g  10.800
  Species S                   : Missing cutoff potential type.
  Defaulting to exp(1/x)/(1-x)^2 type cutoff potential.
  Species S : No 'logarithmic' tag. Using default grid for free atom:
  | Default logarithmic grid data [bohr] : 0.1000E-03 0.1000E+03 0.1012E+01
  | Will include ionic basis functions of  2.0-fold positive S                    ion.
  Species S : On-site basis accuracy parameter (for Gram-Schmidt orthonormalisation) not specified.
  Using default value basis_acc =  0.1000000E-03.
  Species S                   : Using default innermost maximum threshold i_radial=  2 for radial functions.
  Species S                   : Default cutoff onset for free atom density etc. : 0.40000000E+01 AA.
  Species S                   : Basic radial grid will be enhanced according to radial_multiplier =   2, to contain    89 grid points.
 
  Finished reading input file 'control.in'.
 
------------------------------------------------------------


------------------------------------------------------------
          Reading geometry description geometry.in.
------------------------------------------------------------
 * Large trust radius value found - resetting to the current value of max_atomic_move,      0.20000000 A.
  Found keyword 'hessian_file', indicating that this is the continuation of a structure optimization.
  However, the control.in file does not request the geometry to be optimized.
  Ignoring the request for a file 'hessian.aims' to be present.
  | The smallest distance between any two atoms is         2.05526901 AA.
  | The first atom of this pair is atom number                      1 .
  | The second atom of this pair is atom number                     5 .
  Input structure read successfully.
  The structure contains        8 atoms,  and a total of        128.000 electrons.

  Input geometry:
  | No unit cell requested.
  | Atomic structure:
  |       Atom                x [A]            y [A]            z [A]
  |    1: Species S             2.36746789        0.00000000        0.48499306
  |    2: Species S             0.00000000        2.36746789        0.48499306
  |    3: Species S            -2.36746789        0.00000000        0.48499306
  |    4: Species S             0.00000000       -2.36746789        0.48499306
  |    5: Species S             1.67404279       -1.67404279       -0.48499306
  |    6: Species S            -1.67404279       -1.67404279       -0.48499306
  |    7: Species S            -1.67404279        1.67404279       -0.48499306
  |    8: Species S             1.67404279        1.67404279       -0.48499306

 
  Finished reading input file 'control.in'.
 

------------------------------------------------------------
          Reading geometry description geometry.in.
------------------------------------------------------------
 
  Consistency checks for stacksize environment parameter are next.
 
  | Maximum stacksize for task 0: unlimited
  | Maximum stacksize for task 1: unlimited
  | Maximum stacksize for task 2: unlimited
  | Maximum stacksize for task 3: unlimited
  | Maximum stacksize for task 4: unlimited
  | Maximum stacksize for task 5: unlimited
  | Maximum stacksize for task 6: unlimited
  | Maximum stacksize for task 7: unlimited
  | Maximum stacksize for task 8: unlimited
  | Maximum stacksize for task 9: unlimited
  | Current stacksize for task 0: unlimited
  | Current stacksize for task 1: unlimited
  | Current stacksize for task 2: unlimited
  | Current stacksize for task 3: unlimited
  | Current stacksize for task 4: unlimited
  | Current stacksize for task 5: unlimited
  | Current stacksize for task 6: unlimited
  | Current stacksize for task 7: unlimited
  | Current stacksize for task 8: unlimited
  | Current stacksize for task 9: unlimited
 
  Consistency checks for the contents of control.in are next.
 
  HSE06 screening parameters: omega_HF  =      0.11000000 bohr^-1, and
                              omega_PBE =      0.11000000 bohr^-1.
  MPI_IN_PLACE appears to work with this MPI implementation.
  | Keeping use_mpi_in_place .true. (see manual).
  Explicit treatment of the Coulomb operator is needed, but the RI method is not specified.
  Coulomb operator: Defaulting to 'LVL fast' resolution of identity - RI_type = LVL_fast
  Species Ba: Using default value for prodbas_acc =   1.000000E-04.
  Species Ba: Using default value max_l_prodbas =    20.
  Species Zr: Using default value for prodbas_acc =   1.000000E-04.
  Species Zr: Using default value max_l_prodbas =    20.
  Species S: Using default value for prodbas_acc =   1.000000E-04.
  Species S: Using default value max_l_prodbas =    20.
  Target number of points in a grid batch is not set. Defaulting to  100
  Method for grid partitioning is not set. Defaulting to parallel hash+maxmin partitioning.
  Batch size limit is not set. Defaulting to    200
  By default, will store active basis functions for each batch.
  If in need of memory, prune_basis_once .false. can be used to disable this option.
  communication_type for Hartree potential was not specified.
  Defaulting to calc_hartree .
  Defaulting to Pulay charge density mixer.
  Pulay mixer: Number of relevant iterations not set.
  Defaulting to    8 iterations.
  Pulay mixer: Number of initial linear mixing iterations not set.
  Defaulting to    0 iterations.
  Work space size for distributed Hartree potential not set.
  Defaulting to   0.200000E+03 MB.
  Mixing parameter for charge density mixing has not been set.
  Using default: charge_mix_param =     0.0500.
  The mixing parameter will be adjusted in iteration number     2 of the first full s.c.f. cycle only.
  Algorithm-dependent basis array size parameters:
  | n_max_pulay                         :        8
  Maximum number of self-consistency iterations not provided.
  Presetting  1000 iterations.
  Presetting      1001 iterations before the initial mixing cycle
  is restarted anyway using the sc_init_iter criterion / keyword.
  Presetting a factor      1.000 between actual scf density residual
  and density convergence criterion sc_accuracy_rho below which sc_init_iter
  takes no effect.
  Calculation of forces was not defined in control.in. No forces will be calculated.
  Geometry relaxation not requested: no relaxation will be performed.
  No accuracy limit for integral partition fn. given. Defaulting to  0.1000E-14.
  No threshold value for u(r) in integrations given. Defaulting to  0.1000E-05.
  No accuracy for occupation numbers given. Defaulting to  0.1000E-12.
  No threshold value for occupation numbers given. Defaulting to  0.0000E+00.
  No accuracy for fermi level given. Defaulting to  0.1000E-19.
  Maximum # of iterations to find E_F not set. Defaulting to  200.
  Preferred method for the eigenvalue solver ('KS_method') not specified in 'control.in'.
  Calling BLACS routine to test compilation state
  Since ScaLAPACK support is enabled, defaulting to ELPA (via ELSI).
  Will not use alltoall communication since running on < 1024 CPUs.
  Threshold for basis singularities not set.
  Default threshold for basis singularities:  0.1000E-04
  partition_type (choice of integration weights) for integrals was not specified.
  | Using a version of the partition function of Stratmann and coworkers ('stratmann_sparse').
  | At each grid point, the set of atoms used to build the partition table is smoothly restricted to
  | only those atoms whose free-atom density would be non-zero at that grid point.
  Partitioning for Hartree potential was not defined. Using partition_type for integrals.
  | Adjusted default value of keyword multip_moments_threshold to:       0.10000000E-11
  | This value may affect high angular momentum components of the Hartree potential in periodic systems.
  Threshold for auxiliary basis singularities not set.
  Default threshold for auxiliary basis singularities:  0.1000E-04
  No q(lm)/r^(l+1) cutoff set for long-range Hartree potential.
  | Using default value of  0.100000E-09 .
  | Verify using the multipole_threshold keyword.
  Defaulting to new monopole extrapolation.
  Density update method: automatic selection selected.
  Coulomb operator: Defaulting to screening threshold for four-center integrals:   0.100000E-06
  Coulomb operator: Defaulting to screening threshold for Coulomb matrix:   0.100000E-09
  Coulomb operator: Defaulting to 'LVL_fast' resolution of identity - RI_type = LVL_fast 
  No other resolution of identity version is supported for periodic boundary conditions at present.
  Coulomb operator: Defaulting to logarithmic spherical Bessel transform integrals (use_logsbt .true.).
  HSE with LVL_fast: Also defaulting to logarithmic spherical Bessel transform integrals.
  Charge integration errors on the 3D integration grid will be compensated
  by explicit normalization and distribution of residual charges.
  Use the "compensate_multipole_errors" flag to change this behaviour.
  LVL not implemented with density matrix yet
  -> switching to transformed overlap
  LVL probably works better with logsbt
  Default to 1D ("use_logsbt") integrations for auxiliary 2-center integrals.
  Default onset of logarithmic r-grid for SBT is -38.000000000000
  Default onset of logarithmic k-grid for SBT is -25.000000000000
  Default range of logarithmic r- and k-grid for SBT is  45.000000000000
  Default number of logarithmic r- and k-grid for SBT is   4096
  * Use logSBT for radial HSE integration, too
  Default of use_2d_corr is to use the efficient 2D distribution where possible
  Set 'collect_eigenvectors' to be '.true.' for use_density_matrix .false.
 
  Consistency checks for the contents of geometry.in are next.
 
  Number of empty states per atom not set in control.in - providing a guess from actual geometry.
  | Total number of empty states used during s.c.f. cycle:       24
  If you use a very high smearing, use empty_states (per atom!) in control.in to increase this value.

  Structure-dependent array size parameters: 
  | Maximum number of distinct radial functions  :       44
  | Maximum number of basis functions            :      312
  | Number of Kohn-Sham states (occupied + empty):       88
------------------------------------------------------------
  Setting Coulomb cut-width to  1.091868692359 * rcut.
  Setting Coulomb cutting radius rcut to  8.000000000000 A.

------------------------------------------------------------
          Preparing all fixed parts of the calculation.
------------------------------------------------------------
  Determining machine precision:
    2.225073858507201E-308
  Setting up grids for atomic and cluster calculations.

  Creating wave function, potential, and density for free atoms.

  Species: Ba

  List of occupied orbitals and eigenvalues:
    n    l              occ      energy [Ha]    energy [eV]
    1    0           2.0000     -1428.759176    -38878.5153
    2    0           2.0000      -218.156321     -5936.3355
    3    0           2.0000       -45.759571     -1245.1813
    4    0           2.0000        -8.961354      -243.8508
    5    0           2.0000        -1.235311       -33.6145
    6    0           2.0000        -0.117372        -3.1939
    2    1           6.0000      -195.503522     -5319.9215
    3    1           6.0000       -38.566500     -1049.4479
    4    1           6.0000        -6.648037      -180.9023
    5    1           6.0000        -0.686503       -18.6807
    3    2          10.0000       -28.146810      -765.9137
    4    2          10.0000        -3.294406       -89.6453


  Species: Zr

  List of occupied orbitals and eigenvalues:
    n    l              occ      energy [Ha]    energy [eV]
    1    0           2.0000      -668.722933    -18196.8768
    2    0           2.0000       -91.076987     -2478.3309
    3    0           2.0000       -14.873383      -404.7254
    4    0           2.0000        -1.994212       -54.2653
    5    0           2.0000        -0.156460        -4.2575
    2    1           6.0000       -81.194469     -2209.4139
    3    1           6.0000       -11.667913      -317.5001
    4    1           6.0000        -1.184217       -32.2242
    3    2          10.0000        -6.414313      -174.5423
    4    2           2.0000        -0.125045        -3.4027


  Species: S

  List of occupied orbitals and eigenvalues:
    n    l              occ      energy [Ha]    energy [eV]
    1    0           2.0000       -88.680731     -2413.1255
    2    0           2.0000        -7.781719      -211.7513
    3    0           2.0000        -0.633662       -17.2428
    2    1           6.0000        -5.751976      -156.5192
    3    1           4.0000        -0.257086        -6.9957


  Adding cutoff potential to free-atom effective potential.
  Creating fixed part of basis set: Ionic, confined, hydrogenic.
 
  Ba                   ion:

  List of free ionic orbitals and eigenvalues:
    n    l      energy [Ha]    energy [eV]
    1    0     -1428.980456    -38884.5366
    2    0      -218.370478     -5942.1630
    3    0       -45.972614     -1250.9785
    4    0        -9.173714      -249.6295
    5    0        -1.445296       -39.3285
    6    0        -0.278663        -7.5828
    2    1      -195.717553     -5325.7456
    3    1       -38.779502     -1055.2439
    4    1        -6.860306      -186.6784
    5    1        -0.894905       -24.3516
    3    2       -28.359770      -771.7086
    4    2        -3.506466       -95.4158


  List of ionic basis orbitals and eigenvalues:
    n    l      energy [Ha]    energy [eV]    outer radius [A]
    5    2        -0.260030        -7.0758       7.007670
    4    3        -0.142743        -3.8842       7.093864

 
  Ba                   hydrogenic:
 
  List of hydrogenic basis orbitals: 
    n    l      effective z      eigenvalue [eV]  inner max. [A]     outer max. [A]     outer radius [A]   
    3    1         2.700000       -11.0183           0.585865           2.360755           7.358861
    4    0         3.300000        -9.1387           0.118110           3.896996           7.449375
    4    3         5.800000       -28.6057           1.465516           1.465516           5.905331
    5    4         7.400000       -29.8017           1.782126           1.782126           6.354768
 
 
  Zr                   ion:

  List of free ionic orbitals and eigenvalues:
    n    l      energy [Ha]    energy [eV]
    1    0      -669.421026    -18215.8729
    2    0       -91.769634     -2497.1788
    3    0       -15.560469      -423.4219
    4    0        -2.663352       -72.4735
    5    0        -0.640863       -17.4388
    2    1       -81.886574     -2228.2470
    3    1       -12.354892      -336.1937
    4    1        -1.844122       -50.1811
    3    2        -7.101714      -193.2475
    4    2        -0.726930       -19.7808


  List of ionic basis orbitals and eigenvalues:
    n    l      energy [Ha]    energy [eV]    outer radius [A]
    4    2        -0.726920       -19.7805       5.008334
    5    1        -0.469561       -12.7774       5.455794
    5    0        -0.640774       -17.4363       5.389503

 
  Zr                   hydrogenic:
 
  List of hydrogenic basis orbitals: 
    n    l      effective z      eigenvalue [eV]  inner max. [A]     outer max. [A]     outer radius [A]   
    4    3         7.200000       -44.0822           1.169212           1.169212           5.008334
    5    4        10.400000       -58.8635           1.273673           1.273673           4.887365
 
 
  S                    ion:

  List of free ionic orbitals and eigenvalues:
    n    l      energy [Ha]    energy [eV]
    1    0       -89.703778     -2440.9640
    2    0        -8.775428      -238.7916
    3    0        -1.470343       -40.0101
    2    1        -6.747660      -183.6132
    3    1        -1.048627       -28.5346


  List of ionic basis orbitals and eigenvalues:
    n    l      energy [Ha]    energy [eV]    outer radius [A]
    3    2        -0.495605       -13.4861       5.386362
    3    0        -1.470336       -40.0099       3.967934

 
  S                    hydrogenic:
 
  List of hydrogenic basis orbitals: 
    n    l      effective z      eigenvalue [eV]  inner max. [A]     outer max. [A]     outer radius [A]   
    2    1         1.800000       -11.0118           1.168531           1.168531           5.452614
    4    3         7.000000       -41.6672           1.212182           1.212182           5.066981
    4    2         6.200000       -32.6848           0.582121           1.814567           5.386362
    5    4        10.800000       -63.4785           1.227092           1.227092           4.766538
 
  Creating atomic-like basis functions for current effective potential.

  Species Ba                  :

  List of atomic basis orbitals and eigenvalues:
    n    l      energy [Ha]    energy [eV]    outer radius [A]
    1    0     -1428.759176    -38878.5153       0.181180
    2    0      -218.156321     -5936.3355       0.481781
    3    0       -45.759571     -1245.1813       1.053516
    4    0        -8.961354      -243.8508       2.303735
    5    0        -1.235311       -33.6145       5.905331
    6    0        -0.117372        -3.1939       7.358861
    2    1      -195.503522     -5319.9215       0.493705
    3    1       -38.566500     -1049.4479       1.119920
    4    1        -6.648037      -180.9023       2.603304
    5    1        -0.686503       -18.6807       6.838410
    3    2       -28.146810      -765.9137       1.250174
    4    2        -3.294406       -89.6453       3.490975


  Species Zr                  :

  List of atomic basis orbitals and eigenvalues:
    n    l      energy [Ha]    energy [eV]    outer radius [A]
    1    0      -668.722933    -18196.8768       0.259930
    2    0       -91.076987     -2478.3309       0.725827
    3    0       -14.873383      -404.7254       1.771771
    4    0        -1.994212       -54.2653       4.541709
    5    0        -0.156460        -4.2575       5.455794
    2    1       -81.194469     -2209.4139       0.743792
    3    1       -11.667913      -317.5001       1.930067
    4    1        -1.184217       -32.2242       5.008334
    3    2        -6.414313      -174.5423       2.434714
    4    2        -0.125045        -3.4027       5.389503


  Species S                   :

  List of atomic basis orbitals and eigenvalues:
    n    l      energy [Ha]    energy [eV]    outer radius [A]
    1    0       -88.680731     -2413.1255       0.682391
    2    0        -7.781719      -211.7513       2.289014
    3    0        -0.633662       -17.2428       5.256262
    2    1        -5.751976      -156.5192       2.555240
    3    1        -0.257086        -6.9957       5.386362

  Assembling full basis from fixed parts.
  | Species Ba :   atomic orbital   1 s accepted.
  | Species Ba :   atomic orbital   2 s accepted.
  | Species Ba :   atomic orbital   3 s accepted.
  | Species Ba :   atomic orbital   4 s accepted.
  | Species Ba :   atomic orbital   5 s accepted.
  | Species Ba :   atomic orbital   6 s accepted.
  | Species Ba :    hydro orbital   4 s accepted.
  | Species Ba :   atomic orbital   2 p accepted.
  | Species Ba :   atomic orbital   3 p accepted.
  | Species Ba :   atomic orbital   4 p accepted.
  | Species Ba :   atomic orbital   5 p accepted.
  | Species Ba :    hydro orbital   3 p accepted.
  | Species Ba :   atomic orbital   3 d accepted.
  | Species Ba :   atomic orbital   4 d accepted.
  | Species Ba :    ionic orbital   5 d accepted.
  | Species Ba :    hydro orbital   4 f accepted.
  | Species Ba :    ionic orbital   4 f accepted.
  | Species Ba :    hydro orbital   5 g accepted.
  | Species Zr :   atomic orbital   1 s accepted.
  | Species Zr :   atomic orbital   2 s accepted.
  | Species Zr :   atomic orbital   3 s accepted.
  | Species Zr :   atomic orbital   4 s accepted.
  | Species Zr :    ionic orbital   5 s accepted.
  | Species Zr :   atomic orbital   5 s accepted.
  | Species Zr :   atomic orbital   2 p accepted.
  | Species Zr :   atomic orbital   3 p accepted.
  | Species Zr :   atomic orbital   4 p accepted.
  | Species Zr :    ionic orbital   5 p accepted.
  | Species Zr :   atomic orbital   3 d accepted.
  | Species Zr :    ionic orbital   4 d accepted.
  | Species Zr :   atomic orbital   4 d accepted.
  | Species Zr :    hydro orbital   4 f accepted.
  | Species Zr :    hydro orbital   5 g accepted.
  | Species S :   atomic orbital   1 s accepted.
  | Species S :   atomic orbital   2 s accepted.
  | Species S :    ionic orbital   3 s accepted.
  | Species S :   atomic orbital   3 s accepted.
  | Species S :   atomic orbital   2 p accepted.
  | Species S :   atomic orbital   3 p accepted.
  | Species S :    hydro orbital   2 p accepted.
  | Species S :    ionic orbital   3 d accepted.
  | Species S :    hydro orbital   4 d accepted.
  | Species S :    hydro orbital   4 f accepted.
  | Species S :    hydro orbital   5 g accepted.
 
  Basis size parameters after reduction:
  | Total number of radial functions:       44
  | Total number of basis functions :      312
 
  Per-task memory consumption for arrays in subroutine allocate_ext:
  |          16.455908MB.
  Testing on-site integration grid accuracy.
  |  Species  Function  <phi|h_atom|phi> (log., in eV)  <phi|h_atom|phi> (rad., in eV)
           1        1             -38878.5152842456             -38878.5102682711
           1        2              -5936.3355416432              -5936.3354463181
           1        3              -1245.1812725370              -1245.1812651319
           1        4               -243.8508498583               -243.8508475766
           1        5                -33.6145129113                -33.6145123744
           1        6                 -3.1953474132                 -3.1940995993
           1        7                  1.7217240859                  1.7400532086
           1        8              -5319.9215180603              -5319.9215128547
           1        9              -1049.4478540965              -1049.4478516474
           1       10               -180.9022912879               -180.9022896989
           1       11                -18.6806852844                -18.6806849603
           1       12                 -0.6584997172                 -0.6579606663
           1       13               -765.9136710812               -765.9136703559
           1       14                -89.6453457527                -89.6453448903
           1       15                 -1.8801763382                 -1.8802515933
           1       16                  8.1569476582                  8.1569486797
           1       17                  8.6054070843                  8.6053383614
           1       18                 17.5600091881                 17.5599879188
           2       19             -18196.8768435665             -18196.8755705220
           2       20              -2478.3309144498              -2478.3308916069
           2       21               -404.7253557491               -404.7253534742
           2       22                -54.2652640714                -54.2652635286
           2       23                 -3.7119764275                 -3.7119846577
           2       24                  4.5875772639                  4.5868905659
           2       25              -2209.4139097225              -2209.4139071812
           2       26               -317.5000788444               -317.5000777556
           2       27                -32.2241784576                -32.2241781542
           2       28                 -0.3319152745                 -0.3319660629
           2       29               -174.5423275335               -174.5423272575
           2       30                 -3.0504029429                 -3.0504025329
           2       31                  4.9970437712                  4.9966978803
           2       32                 16.8632595236                 16.8632598612
           2       33                 37.0867992037                 37.0867988501
           3       34              -2413.1254568977              -2413.1254096663
           3       35               -211.7513411281               -211.7513404762
           3       36                -16.9725280787                -16.9725279206
           3       37                  7.6024436204                  7.6024549059
           3       38               -156.5192206929               -156.5192205451
           3       39                 -6.9959757887                 -6.9959777655
           3       40                  6.8896462808                  6.8895564741
           3       41                  6.0214250550                  6.0214220200
           3       42                 19.6206468977                 19.6206494558
           3       43                 24.7008710786                 24.7008710738
           3       44                 47.5292252001                 47.5292260486

  Preparing densities etc. for the partition functions (integrals / Hartree potential).

  Preparations completed.
  max(cpu_time)          :      0.478 s.
  Wall clock time (cpu1) :      0.477 s.
------------------------------------------------------------

------------------------------------------------------------
          Begin self-consistency loop: Initialization.

          Date     :  20220514, Time     :  230908.732
------------------------------------------------------------

  Initializing index lists of integration centers etc. from given atomic structure:
  | Number of centers in hartree potential         :         8
  | Number of centers in hartree multipole         :         8
  | Number of centers in electron density summation:         8
  | Number of centers in basis integrals           :         8
  | Number of centers in integrals                 :         8
  | Number of centers in hamiltonian               :         8
  * Using 10 tasks for Scalapack Eigenvalue solver.
  Detailed listing of tasks and assigned k-points:
  (for non-periodic systems, the "k-point" denotes an internal label only)
   Task     0 k-point     1 on c21000127-lnx
   Task     1 k-point     1 on c21000127-lnx
   Task     2 k-point     1 on c21000127-lnx
   Task     3 k-point     1 on c21000127-lnx
   Task     4 k-point     1 on c21000127-lnx
   Task     5 k-point     1 on c21000127-lnx
   Task     6 k-point     1 on c21000127-lnx
   Task     7 k-point     1 on c21000127-lnx
   Task     8 k-point     1 on c21000127-lnx
   Task     9 k-point     1 on c21000127-lnx
  Tasks:    10 split into      5 X      2 BLACS grid
  Calculating block size based on n_basis =          312  max_nprow =            5  max_npcol =            2
  ScaLAPACK block size set to:           16
  Allocating        0.078 MB for ovlp
  Allocating        0.078 MB for ham
  Allocating        0.078 MB for eigenvec
  Required Scalapack workspace - INTEGER:            1  REAL:             1
  Partitioning the integration grid into batches with parallel hashing+maxmin method.
  | Number of batches:     2709
  | Maximal batch size:     138
  | Minimal batch size:      57
  | Average batch size:      72.357
  | Standard deviation of batch sizes:      21.813

  Integration load balanced across    10 MPI tasks.
  Work distribution over tasks is as follows:
  Task     0 has      19590 integration points.
  Task     1 has      19602 integration points.
  Task     2 has      19568 integration points.
  Task     3 has      19663 integration points.
  Task     4 has      19609 integration points.
  Task     5 has      19589 integration points.
  Task     6 has      19548 integration points.
  Task     7 has      19581 integration points.
  Task     8 has      19676 integration points.
  Task     9 has      19590 integration points.
  Initializing partition tables, free-atom densities, potentials, etc. across the integration grid (initialize_grid_storage).
  | initialize_grid_storage: Actual outermost partition radius vs. multipole_radius_free
  | (-- VB: in principle, multipole_radius_free should be larger, hence this output)
  | Species        1: Confinement radius =              8.000000000000000 AA, multipole_radius_free =              8.016324652127386 AA.
  | Species        1: outer_partition_radius set to              8.016324652127386 AA .
  | Species        2: Confinement radius =              6.000000000000000 AA, multipole_radius_free =              6.016333975203386 AA.
  | Species        2: outer_partition_radius set to              6.016333975203386 AA .
  | Species        3: Confinement radius =              6.000000000000000 AA, multipole_radius_free =              6.012827091137924 AA.
  | Species        3: outer_partition_radius set to              6.012827091137924 AA .
  | The sparse table of interatomic distances needs          0.71 kbyte instead of         0.51 kbyte of memory.
  | Using the partition_type stratmann_smoother will reduce your memory usage.
  | Net number of integration points:   196016
  | of which are non-zero points    :   180976
  Renormalizing the initial density to the exact electron count on the 3D integration grid.
  | Initial density: Formal number of electrons (from input files) :     128.0000000000
  | Integrated number of electrons on 3D grid     :     128.0000443414
  | Charge integration error                      :       0.0000443414
  | Normalization factor for density and gradient :       0.9999996536
  Renormalizing the free-atom superposition density to the exact electron count on the 3D integration grid.
  | Formal number of electrons (from input files) :     128.0000000000
  | Integrated number of electrons on 3D grid     :     128.0000443414
  | Charge integration error                      :       0.0000443414
  | Normalization factor for density and gradient :       0.9999996536
  Obtaining max. number of non-zero basis functions in each batch (get_n_compute_maxes).
  | Maximal number of non-zero basis functions:      304 in task     0
  | Maximal number of non-zero basis functions:      304 in task     1
  | Maximal number of non-zero basis functions:      303 in task     2
  | Maximal number of non-zero basis functions:      304 in task     3
  | Maximal number of non-zero basis functions:      304 in task     4
  | Maximal number of non-zero basis functions:      298 in task     5
  | Maximal number of non-zero basis functions:      304 in task     6
  | Maximal number of non-zero basis functions:      304 in task     7
  | Maximal number of non-zero basis functions:      304 in task     8
  | Maximal number of non-zero basis functions:      297 in task     9
  Selecting the method for density update.
  Loop over occupied states selected for charge density update.
  Allocating        0.209 MB for KS_eigenvector
  Integrating Hamiltonian matrix: batch-based integration.
  Time summed over all CPUs for integration: real work        1.808 s, elapsed        1.879 s
  Integrating overlap matrix.
  Time summed over all CPUs for integration: real work        0.776 s, elapsed        0.800 s
  Deallocating overlap matrix.

  Updating Kohn-Sham eigenvalues and eigenvectors using ELSI and the ELPA eigensolver.
  Overlap matrix is not singular
  | Lowest and highest eigenvalues :  0.4333E-03,  0.4961E+01
  Finished singularity check of overlap matrix
  | Time :     0.008 s
  Starting ELPA eigensolver
  Finished Cholesky decomposition
  | Time :     0.002 s
  Finished transformation to standard eigenproblem
  | Time :     0.001 s
  Finished solving standard eigenproblem
  | Time :     0.008 s
  Finished back-transformation of eigenvectors
  | Time :     0.000 s

  Obtaining occupation numbers and chemical potential using ELSI.
  | Chemical potential (Fermi level):    -5.55361441 eV
  Writing Kohn-Sham eigenvalues.

  State    Occupation    Eigenvalue [Ha]    Eigenvalue [eV]
      1       2.00000         -88.694956        -2413.51256
      2       2.00000         -88.694956        -2413.51256
      3       2.00000         -88.694956        -2413.51256
      4       2.00000         -88.694956        -2413.51256
      5       2.00000         -88.694956        -2413.51256
      6       2.00000         -88.694956        -2413.51256
      7       2.00000         -88.694956        -2413.51256
      8       2.00000         -88.694956        -2413.51256
      9       2.00000          -7.798227         -212.20054
     10       2.00000          -7.798214         -212.20020
     11       2.00000          -7.798214         -212.20020
     12       2.00000          -7.798184         -212.19937
     13       2.00000          -7.798184         -212.19937
     14       2.00000          -7.798153         -212.19855
     15       2.00000          -7.798153         -212.19855
     16       2.00000          -7.798141         -212.19820
     17       2.00000          -5.769470         -156.99526
     18       2.00000          -5.769424         -156.99401
     19       2.00000          -5.769424         -156.99401
     20       2.00000          -5.769306         -156.99082
     21       2.00000          -5.769306         -156.99082
     22       2.00000          -5.769175         -156.98723
     23       2.00000          -5.769175         -156.98723
     24       2.00000          -5.769114         -156.98559
     25       2.00000          -5.768296         -156.96333
     26       2.00000          -5.768261         -156.96238
     27       2.00000          -5.768261         -156.96238
     28       2.00000          -5.768192         -156.96050
     29       2.00000          -5.768192         -156.96050
     30       2.00000          -5.768138         -156.95903
     31       2.00000          -5.768138         -156.95903
     32       2.00000          -5.768119         -156.95850
     33       2.00000          -5.767130         -156.93158
     34       2.00000          -5.767129         -156.93157
     35       2.00000          -5.767129         -156.93157
     36       2.00000          -5.767127         -156.93152
     37       2.00000          -5.767127         -156.93152
     38       2.00000          -5.767126         -156.93148
     39       2.00000          -5.767126         -156.93148
     40       2.00000          -5.767125         -156.93146
     41       2.00000          -0.826964          -22.50282
     42       2.00000          -0.797416          -21.69879
     43       2.00000          -0.797416          -21.69879
     44       2.00000          -0.719572          -19.58055
     45       2.00000          -0.719571          -19.58053
     46       2.00000          -0.613740          -16.70072
     47       2.00000          -0.613740          -16.70072
     48       2.00000          -0.541608          -14.73790
     49       2.00000          -0.453475          -12.33967
     50       2.00000          -0.427868          -11.64288
     51       2.00000          -0.427868          -11.64288
     52       2.00000          -0.396418          -10.78708
     53       2.00000          -0.369731          -10.06090
     54       2.00000          -0.369730          -10.06086
     55       2.00000          -0.364036           -9.90593
     56       2.00000          -0.364036           -9.90593
     57       2.00000          -0.331496           -9.02046
     58       2.00000          -0.278252           -7.57161
     59       2.00000          -0.278252           -7.57161
     60       2.00000          -0.270864           -7.37058
     61       2.00000          -0.270863           -7.37056
     62       2.00000          -0.262648           -7.14701
     63       2.00000          -0.262648           -7.14701
     64       2.00000          -0.257610           -7.00992
     65       0.00000          -0.130087           -3.53985
     66       0.00000          -0.130087           -3.53985
     67       0.00000          -0.117926           -3.20893
     68       0.00000          -0.084031           -2.28661
     69       0.00000          -0.083394           -2.26926
     70       0.00000          -0.083394           -2.26926
     71       0.00000          -0.079298           -2.15782
     72       0.00000          -0.079297           -2.15778
     73       0.00000           0.026601            0.72386
     74       0.00000           0.048237            1.31261
     75       0.00000           0.048238            1.31262
     76       0.00000           0.063111            1.71735
     77       0.00000           0.063111            1.71735
     78       0.00000           0.079019            2.15021
     79       0.00000           0.079019            2.15021
     80       0.00000           0.090436            2.46089
     81       0.00000           0.092703            2.52257
     82       0.00000           0.092973            2.52992
     83       0.00000           0.115456            3.14172
     84       0.00000           0.117454            3.19610
     85       0.00000           0.117454            3.19610
     86       0.00000           0.122930            3.34509
     87       0.00000           0.122931            3.34512
     88       0.00000           0.142931            3.88936

  Highest occupied state (VBM) at     -7.00991753 eV
  | Occupation number:      2.00000000

  Lowest unoccupied state (CBM) at    -3.53985209 eV
  | Occupation number:      0.00000000

  Overall HOMO-LUMO gap:      3.47006545 eV.
  Calculating total energy contributions from superposition of free atom densities.

  Total energy components:
  | Sum of eigenvalues            :       -1842.79590319 Ha      -50145.02787678 eV
  | XC energy correction          :        -204.92746280 Ha       -5576.35998483 eV
  | XC potential correction       :         264.86161057 Ha        7207.25112446 eV
  | Free-atom electrostatic energy:       -1415.49413651 Ha      -38517.55520598 eV
  | Hartree energy correction     :           0.00000000 Ha           0.00000000 eV
  | Entropy correction            :          -0.00000000 Ha          -0.00000000 eV
  | ---------------------------
  | Total energy                  :       -3198.35589193 Ha      -87031.69194313 eV
  | Total energy, T -> 0          :       -3198.35589193 Ha      -87031.69194313 eV  <-- do not rely on this value for anything but (periodic) metals
  | Electronic free energy        :       -3198.35589193 Ha      -87031.69194313 eV

  Derived energy quantities:
  | Kinetic energy                :        3210.68318524 Ha       87367.13466136 eV
  | Electrostatic energy          :       -6204.11161437 Ha     -168822.46661967 eV
  | Energy correction for multipole
  | error in Hartree potential    :           0.00000000 Ha           0.00000000 eV
  | Sum of eigenvalues per atom                           :       -6268.12848460 eV
  | Total energy (T->0) per atom                          :      -10878.96149289 eV  <-- do not rely on this value for anything but (periodic) metals
  | Electronic free energy per atom                       :      -10878.96149289 eV
  
  --------------------------------------------
  Constructing auxiliary basis (full product) ...
  
  Product basis:
  | charge radius: extent of product basis function
  | field radius: extent of its Coulomb potential
  | Species   l  charge radius    field radius
  |    S      0     4.651410 A      4.651410 A
  |    S      0     4.944596 A      6.630597 A
  |    S      0     5.066981 A      6.630597 A
  |    S      0     5.192396 A      6.161652 A
  |    S      0     5.320915 A     15.225837 A
  |    S      0     5.320915 A     21.440751 A
  |    S      0     5.386362 A     23.356335 A
  |    S      0     5.386362 A     24.526844 A
  |    S      0     5.452614 A     25.133916 A
  |    S      0     5.452614 A     25.133916 A
  |    S      1     5.005415 A      5.005415 A
  |    S      1     5.005415 A      5.005415 A
  |    S      1     5.129305 A      6.391826 A
  |    S      1     5.256262 A      9.805019 A
  |    S      1     5.386362 A     16.185548 A
  |    S      1     5.452614 A     21.971438 A
  |    S      1     5.386362 A     23.072542 A
  |    S      1     5.452614 A     24.228829 A
  |    S      1     5.452614 A     25.133916 A
  |    S      1     5.452614 A     25.443063 A
  |    S      2     4.708622 A      4.708622 A
  |    S      2     5.066981 A      5.066981 A
  |    S      2     5.192396 A      7.772716 A
  |    S      2     5.256262 A      8.676728 A
  |    S      2     5.320915 A     12.218413 A
  |    S      2     5.386362 A     19.924367 A
  |    S      2     5.452614 A     22.792198 A
  |    S      2     5.452614 A     24.228829 A
  |    S      2     5.452614 A     25.133916 A
  |    S      2     5.452614 A     25.756013 A
  |    S      3     5.005415 A      5.005415 A
  |    S      3     5.192396 A      5.192396 A
  |    S      3     5.320915 A      6.470445 A
  |    S      3     5.320915 A      7.401774 A
  |    S      3     5.386362 A     12.830742 A
  |    S      3     5.386362 A     15.988884 A
  |    S      3     5.320915 A     21.704473 A
  |    S      3     5.452614 A     23.934435 A
  |    S      3     5.452614 A     25.133916 A
  |    S      3     5.452614 A     25.756013 A
  |    S      4     5.066981 A      5.066981 A
  |    S      4     5.192396 A      5.192396 A
  |    S      4     5.320915 A      7.048535 A
  |    S      4     5.386362 A     15.040835 A
  |    S      4     5.452614 A     21.180234 A
  |    S      4     5.452614 A     23.643618 A
  |    S      4     5.452614 A     23.934435 A
  |    S      4     5.452614 A     24.828524 A
  |    S      5     5.129305 A      5.587574 A
  |    S      5     5.192396 A     14.858080 A
  |    S      5     5.192396 A     20.417522 A
  |    S      5     5.256262 A     22.792198 A
  |    S      5     5.256262 A     24.228829 A
  |    S      6     5.129305 A     14.677546 A
  |    S      6     5.192396 A     19.924367 A
  |    S      6     5.129305 A     21.440751 A
  |    S      6     5.129305 A     23.356335 A
  |    S      7     4.884517 A     20.169437 A
  |    S      7     4.944596 A     22.515260 A
  |    S      8     4.708622 A     20.417522 A

  | Shrink_full_auxil_basis : there are       60  radial auxiliary wave functions
                            accepted and      90 rejected.
  | Shrink_full_auxil_basis : there are totally                3088 partial auxiliary wave functions.
  prodbas_tasks_distribution_pbc not up to date - distributing tasks.
 
  | Maximal number of product basis functions per thread :   320   320
 
  | Number of local auxiliary basis funcs on node     0 :    320
  | Number of local auxiliary basis funcs on node     1 :    320
  | Number of local auxiliary basis funcs on node     2 :    320
  | Number of local auxiliary basis funcs on node     3 :    304
  | Number of local auxiliary basis funcs on node     4 :    304
  | Number of local auxiliary basis funcs on node     5 :    304
  | Number of local auxiliary basis funcs on node     6 :    304
  | Number of local auxiliary basis funcs on node     7 :    304
  | Number of local auxiliary basis funcs on node     8 :    304
  | Number of local auxiliary basis funcs on node     9 :    304
  Parallel distribution of product basis not up to date - distributing tasks.
 
  | Maximal number of product basis functions per thread :   320   320
 
  | Minimal total memory requirement for three-center overlap :       1.311 Gbs
  | Number of local auxiliary basis functions on task:      0   320
  | Number of local auxiliary basis functions on task:      1   320
  | Number of local auxiliary basis functions on task:      2   320
  | Number of local auxiliary basis functions on task:      3   304
  | Number of local auxiliary basis functions on task:      4   304
  | Number of local auxiliary basis functions on task:      5   304
  | Number of local auxiliary basis functions on task:      6   304
  | Number of local auxiliary basis functions on task:      7   304
  | Number of local auxiliary basis functions on task:      8   304
  | Number of local auxiliary basis functions on task:      9   304
  | 2D aux task distribution:      2 X      5
  | 2D block size (nb_aux_2d):     64
  | Task at    0 x    0 gets   1552 x    640 entries of 2D aux
  | Task at    0 x    1 gets   1552 x    640 entries of 2D aux
  | Task at    0 x    2 gets   1552 x    640 entries of 2D aux
  | Task at    0 x    3 gets   1552 x    592 entries of 2D aux
  | Task at    0 x    4 gets   1552 x    576 entries of 2D aux
  | Task at    1 x    0 gets   1536 x    640 entries of 2D aux
  | Task at    1 x    1 gets   1536 x    640 entries of 2D aux
  | Task at    1 x    2 gets   1536 x    640 entries of 2D aux
  | Task at    1 x    3 gets   1536 x    592 entries of 2D aux
  | Task at    1 x    4 gets   1536 x    576 entries of 2D aux
  -----------------------------------------
  --- Initializing Fock matrix calculations
  -----------------------------------------
  screening_threshold (crit_val) =  0.000000100000
  coul_mat_threshold =  0.000000000100
  Trying to make the workload more even by internally splitting atoms into fractions
  Atom:            1  Basis/atom:    39.0000000000000
  Atom:            2  Basis/atom:    39.0000000000000
  Atom:            3  Basis/atom:    39.0000000000000
  Atom:            4  Basis/atom:    39.0000000000000
  Atom:            5  Basis/atom:    39.0000000000000
  Atom:            6  Basis/atom:    39.0000000000000
  Atom:            7  Basis/atom:    39.0000000000000
  Atom:            8  Basis/atom:    39.0000000000000
  -----------------------------------------------------
  Dividing atoms among tasks for exact exchange energy:
  Atom:     1 Weight:   386.00
  Atom:     2 Weight:   386.00
  Atom:     3 Weight:   386.00
  Atom:     4 Weight:   386.00
  Atom:     5 Weight:   386.00
  Atom:     6 Weight:   386.00
  Atom:     7 Weight:   386.00
  Atom:     8 Weight:   386.00
  Atom:     9 Weight:   386.00
  Atom:    10 Weight:   386.00
  Atom:    11 Weight:   386.00
  Atom:    12 Weight:   386.00
  Atom:    13 Weight:   386.00
  Atom:    14 Weight:   386.00
  Atom:    15 Weight:   386.00
  Atom:    16 Weight:   386.00

  Average weight per task:   617.60

  Number of "big" (above average) atoms  :     0
  Number of "small" (below average) atoms:    16

  All atoms have below average work per task
  No atom will be divided among tasks, atoms will be sorted to get best load distribution

  Atom division among tasks:
  Atom     1: (initial) task:     0, # of tasks:     1
  Atom     2: (initial) task:     1, # of tasks:     1
  Atom     3: (initial) task:     2, # of tasks:     1
  Atom     4: (initial) task:     3, # of tasks:     1
  Atom     5: (initial) task:     4, # of tasks:     1
  Atom     6: (initial) task:     5, # of tasks:     1
  Atom     7: (initial) task:     6, # of tasks:     1
  Atom     8: (initial) task:     7, # of tasks:     1
  Atom     9: (initial) task:     8, # of tasks:     1
  Atom    10: (initial) task:     9, # of tasks:     1
  Atom    11: (initial) task:     0, # of tasks:     1
  Atom    12: (initial) task:     1, # of tasks:     1
  Atom    13: (initial) task:     2, # of tasks:     1
  Atom    14: (initial) task:     3, # of tasks:     1
  Atom    15: (initial) task:     4, # of tasks:     1
  Atom    16: (initial) task:     5, # of tasks:     1

  -----------------------------------------------------
 There are now:           16  "atoms" instead of:            8
       new       old  bas/atom
         1         1        15
         2         1        24
         3         2        15
         4         2        24
         5         3        15
         6         3        24
         7         4        15
         8         4        24
         9         5        15
        10         5        24
        11         6        15
        12         6        24
        13         7        15
        14         7        24
        15         8        15
        16         8        24
  Number of super-cells in X Y Z:       0       0       0
  Number of atoms pairs total:          256
  Atom pair distribution:
  Cell:        0       0       0 atom pairs:      256
 sparsity of pfbvk:   1.000000
  Number of atoms pairs in BvK cells:          256
  Initializing work distribution for fock matrix calculation
  Task     0 : Coulomb matrix distribution changed.
  Task     1 : Coulomb matrix distribution changed.
  Task     2 : Coulomb matrix distribution changed.
  Task     3 : Coulomb matrix distribution changed.
  Task     4 : Coulomb matrix distribution changed.
  Task     5 : Coulomb matrix distribution changed.
  Task     6 : Coulomb matrix distribution changed.
  Task     7 : Coulomb matrix distribution changed.
  Task     8 : Coulomb matrix distribution changed.
  Task     9 : Coulomb matrix distribution changed.
  Overall Coulomb matrix distribution changed.
  Coulomb matrix subdivision:
  Task     0 works on full atoms (no Coulomb matrix division)
  Task      0: my_n_atoms2:      2 my_atom_list:      1    11
  Task      1: my_n_atoms2:      2 my_atom_list:      2    12
  Task      2: my_n_atoms2:      2 my_atom_list:      3    13
  Task      3: my_n_atoms2:      2 my_atom_list:      4    14
  Task      4: my_n_atoms2:      2 my_atom_list:      5    15
  Task      5: my_n_atoms2:      2 my_atom_list:      6    16
  Task      6: my_n_atoms2:      1 my_atom_list:      7
  Task      7: my_n_atoms2:      1 my_atom_list:      8
  Task      8: my_n_atoms2:      1 my_atom_list:      9
  Task      9: my_n_atoms2:      1 my_atom_list:     10
  Task      0: my_n_atom_pairs:     32
  Task      1: my_n_atom_pairs:     32
  Task      2: my_n_atom_pairs:     32
  Task      3: my_n_atom_pairs:     32
  Task      4: my_n_atom_pairs:     32
  Task      5: my_n_atom_pairs:     32
  Task      6: my_n_atom_pairs:     16
  Task      7: my_n_atom_pairs:     16
  Task      8: my_n_atom_pairs:     16
  Task      9: my_n_atom_pairs:     16
  --- Initializing LVL triples, type HSE
  | Storage requirements for basis-basbas products (processor-local):
  |   Species Ba: n_prodsfn:     0; storage:        0.00 MiB.
  |   Species Zr: n_prodsfn:     0; storage:        0.00 MiB.
  |   Species S: n_prodsfn:  1250; storage:       39.06 MiB.

  --- Initializing Coulomb matrix calculations, type HSE
  Preparing TB like auxiliary 2-center HSE-pot matrix
  SBT integration errors (all should be 'small'):
  large logFT aliasing -> increase N/lnrange
  large SBT aliasing -> decrease lnk0 & increase lnk0+lnrange
  large SBT ringing -> decrease lnr0 & increase lnr0+lnrange
  |            El't  L: logFT-al.   small-k   large-k   small-r   large-r
  | Need to store  4713 splines of   251 points taking       9320 KiB.
  | Spline reduction from  4096 to   251 points by (cutting and)     1 x coarsening gives error:  0.00E+00
  | Maximum value outside interaction range:  8.24E-14
  Finished with initialize_tb_auxmat/lvl_triples, time:        0.364
  Upper limit for memory consumption per node [GB] for Coulomb matrices if no compression occurs:       0.153
  Upper limit for temporary arrays in Coulomb matrix initalization [GB]:      3.00
  --- Calculating Coulomb matrices
  Allocating        1.137 MB for aux_mat
  Max. memory consumption per node for Coulomb matrix [GB]:      0.15
  Time to calculate Coulomb Matrices   :        0.075
   Number of Coulomb matrix elements:
  | Task     0 total:        2383936, > threshold:        1480228, stored:        2383165
  | Task     1 total:        2383936, > threshold:        1480228, stored:        2383165
  | Task     2 total:        2383936, > threshold:        1480228, stored:        2383165
  | Task     3 total:        2383936, > threshold:        1480228, stored:        2383165
  | Task     4 total:        2383936, > threshold:        1480228, stored:        2383165
  | Task     5 total:        2383936, > threshold:        1480228, stored:        2383165
  | Task     6 total:        1191968, > threshold:         754516, stored:        1191197
  | Task     7 total:        1191968, > threshold:         754516, stored:        1191197
  | Task     8 total:        1191968, > threshold:         725712, stored:        1191968
  | Task     9 total:        1191968, > threshold:         725712, stored:        1191968
  --- Done init_fock_matrix_calculations
  Max. memory per node for ovlp3fn matrices:        0.301 GB
  Total memory for ovlp3fn matrices:        0.301 GB
  Size of ovlp3fn for atom    4680       1     386
  Size of ovlp3fn for atom    4680      11     386
  --- Calculating OVLP3FN
  --- Done calculating OVLP3FN, time:       26.264
  Compare n_pairs with n_super       1       1
  --- Done getting norm of OVLP3FN, time:        0.024
  Atomic logSBT for 2-center HSE-pot matrix    :  max(cpu_time)    wall_clock(cpu1)
  | TB initialization                           :        0.191 s           0.193 s
  | TB usage                                    :        0.099 s           0.103 s

  Atomic logSBT for LVL-triples                :  max(cpu_time)    wall_clock(cpu1)
  | Multiplication with kernel                  :        0.043 s           0.045 s
  | Main matrix multiplication                  :        7.593 s           7.597 s
  | Analytic angular integration                :        0.043 s           0.043 s
  | Kernel construction                         :        0.037 s           0.041 s
  | Overall 2-center overlap time               :        8.037 s           8.030 s
  | 3-center preparation multiplications        :        1.155 s           1.128 s
  | 3-center preparation SBTs                   :       10.592 s          10.558 s
  | 3-center combinations                       :       10.311 s          10.258 s
  | Overal 3-center time                        :       22.057 s          22.031 s
  | LVL initialization                          :        0.171 s           0.171 s
  | Whole LVL-triples                           :        0.171 s           0.171 s

  Max. memory consumption per node for Hartree Fock matrix + Pulay mixing [GB]:      0.01
  Blocksize for Fock matrix computation:    20
  Initialize hartree_potential_storage
  Max. number of atoms included in rho_multipole:            8

  End scf initialization - timings             :  max(cpu_time)    wall_clock(cpu1)
  | Time for scf. initialization                :       27.499 s          27.536 s
  | Boundary condition initialization           :        0.000 s           0.000 s
  | Integration                                 :        0.269 s           0.269 s
  | Solution of K.-S. eqns.                     :        0.020 s           0.019 s
  | Grid partitioning                           :        0.100 s           0.100 s
  | Preloading free-atom quantities on grid     :        0.045 s           0.045 s
  | Free-atom superposition energy              :        0.014 s           0.014 s
  | Total energy evaluation                     :        0.000 s           0.000 s
  | Product basis setup: Total time             :       27.049 s          27.085 s

  Partial memory accounting:
  | Current value for overall tracked memory usage:
  |   Minimum:       14.607 MB (on task  8)
  |   Maximum:       45.024 MB (on task  1)
  |   Average:       29.548 MB
  | Peak value for overall tracked memory usage:
  |   Minimum:       14.607 MB (on task  8 after allocating max_norm_tmp_old)
  |   Maximum:       45.024 MB (on task  1 after allocating max_norm_tmp_old)
  |   Average:       29.548 MB
  | Largest tracked array allocation so far:
  |   Minimum:       13.782 MB (ovlp3fn for atom on task  0)
  |   Maximum:       22.052 MB (ovlp3fn for atom on task  1)
  |   Average:       17.917 MB
  Note:  These values currently only include a subset of arrays which are explicitly tracked.
  The "true" memory usage will be greater.
------------------------------------------------------------
  Evaluating new KS density.
  Integration grid: deviation in total charge (<rho> - N_e) =  -2.842171E-14

  Time for density update prior                :  max(cpu_time)    wall_clock(cpu1)
  | self-consistency iterative process          :        0.168 s           0.168 s

------------------------------------------------------------
          Begin self-consistency iteration #    1

  Date     :  20220514, Time     :  230936.436
------------------------------------------------------------
  Pulay mixing of updated and previous charge densities.
  Renormalizing the density to the exact electron count on the 3D integration grid.
  | Formal number of electrons (from input files) :     128.0000000000
  | Integrated number of electrons on 3D grid     :     128.0000000000
  | Charge integration error                      :      -0.0000000000
  | Normalization factor for density and gradient :       1.0000000000

  Evaluating partitioned Hartree potential by multipole expansion.
  | Original multipole sum: apparent total charge =  -0.483423E-12
  | Sum of charges compensated after spline to logarithmic grids =   0.149457E-06
  | Analytical far-field extrapolation by fixed multipoles:
  | Hartree multipole sum: apparent total charge =  -0.483422E-12
  Summing up the Hartree potential.
  Time summed over all CPUs for potential: real work        0.443 s, elapsed        0.451 s
  | RMS charge density error from multipole expansion :   0.295581E-03

  Integrating Hamiltonian matrix: batch-based integration.
  Time summed over all CPUs for integration: real work        2.040 s, elapsed        2.099 s
  Max. memory consumption per node for dm_cols [GB]:      0.00
  Max. memory consumption per node for fock_matrix [GB]:      0.00
  Calculating non-local Hartree-Fock exchange by two-center RI (RI-LVL).
  screening_threshold (crit_val) =  0.000000100000
  Max. allocated memory per node for ovlp3fn_rcv [GB]:      0.04
  Max. allocated memory per node for fock_matrix_row [GB]:      0.00
  Max. memory consumption per node for m_ovlp_fact11 [GB]:      0.00
  Max. memory consumption per node for d_aux_mem [GB]:      0.00
  Max. memory consumption per node for dm_x_o3fn_aux [GB]:      0.00
  Max. allocated memory per node for tmp1/tmp2 [GB]:      0.02
   final impselect vector           4           3           6           1
   Time for autotuning:   0.601934811100364
[...]
  | Times    2:        0.106       1.021       0.191       0.127       0.003       0.236       0.187       1.870
  | Times    3:        0.168       1.057       0.235       0.201       0.003       0.007       0.199       1.870
  | Times    4:        0.106       1.013       0.199       0.125       0.003       0.240       0.184       1.870
  | Times    5:        0.170       1.021       0.224       0.197       0.003       0.060       0.196       1.870
  | Times    6:        0.056       0.518       0.105       0.064       0.003       0.953       0.171       1.870
  | Times    7:        0.092       0.530       0.120       0.101       0.003       0.847       0.178       1.870
  | Times    8:        0.054       0.511       0.108       0.064       0.003       0.960       0.170       1.870
  | Times    9:        0.091       0.530       0.119       0.101       0.003       0.847       0.179       1.870
  | Times  sum:        1.119       8.284       1.718       1.310       0.028       4.399       1.845      18.704

  Decomposition of Other based on code block (only on MPI task 0):
  Times             Block #1    Block #2    Block #3    Block #4    Block #5    Block #6    Block #7    Block #8
  | Times    0:        0.001       0.000       0.000       0.000       0.000       0.000       0.027       0.000

  Times             Block #9   Block #10   Block #11   Block #12   Block #13   Block #14   Block #15   Block #16
  | Times    0:        0.000       0.000       0.002       0.146       0.005       0.000       0.000       0.000

  Times            Block Sum    Expected
  | Times    0:        0.181       0.182
 Time for Fock matrix mixing  1.158485189080238E-003

  Updating Kohn-Sham eigenvalues and eigenvectors using ELSI and the ELPA eigensolver.
  Starting ELPA eigensolver
  Finished transformation to standard eigenproblem
  | Time :     0.001 s
  Finished solving standard eigenproblem
  | Time :     0.008 s
  Finished back-transformation of eigenvectors
  | Time :     0.000 s

  Obtaining occupation numbers and chemical potential using ELSI.
  | Chemical potential (Fermi level):    -4.59257098 eV
  Highest occupied state (VBM) at     -7.18160558 eV
  | Occupation number:      2.00000000

  Lowest unoccupied state (CBM) at    -2.65101754 eV
  | Occupation number:      0.00000000

  Overall HOMO-LUMO gap:      4.53058804 eV.

  Total energy components:
  | Sum of eigenvalues            :       -1874.24901604 Ha      -51000.91062430 eV
  | XC energy correction          :        -108.94851653 Ha       -2964.63997387 eV
  | XC potential correction       :         202.39961200 Ha        5507.57366487 eV
  | Free-atom electrostatic energy:       -1415.49413651 Ha      -38517.55520598 eV
  | Hartree energy correction     :          -2.39061404 Ha         -65.05191783 eV
  | Entropy correction            :          -0.00000000 Ha          -0.00000000 eV
  | ---------------------------
  | Total energy                  :       -3198.68267111 Ha      -87040.58405711 eV
  | Total energy, T -> 0          :       -3198.68267111 Ha      -87040.58405711 eV  <-- do not rely on this value for anything but (periodic) metals
  | Electronic free energy        :       -3198.68267111 Ha      -87040.58405711 eV

  Derived energy quantities:
  | Kinetic energy                :        3211.26443173 Ha       87382.95118285 eV
  | Electrostatic energy          :       -6204.45444808 Ha     -168831.79559936 eV
  | Energy correction for multipole
  | error in Hartree potential    :          -0.00409579 Ha          -0.11145207 eV
  | Sum of eigenvalues per atom                           :       -6375.11382804 eV
  | Total energy (T->0) per atom                          :      -10880.07300714 eV  <-- do not rely on this value for anything but (periodic) metals
  | Electronic free energy per atom                       :      -10880.07300714 eV

  Self-consistency convergence accuracy:
  | Change of charge density      :  0.4391E-06
  | Change of sum of eigenvalues  : -0.2381E-03 eV
  | Change of total energy        :  0.1919E-05 eV

  Writing Kohn-Sham eigenvalues.

  State    Occupation    Eigenvalue [Ha]    Eigenvalue [eV]
      1       2.00000         -89.649568        -2439.48887
      2       2.00000         -89.649568        -2439.48887
      3       2.00000         -89.649568        -2439.48887
      4       2.00000         -89.649568        -2439.48886
      5       2.00000         -89.649567        -2439.48883
      6       2.00000         -89.649567        -2439.48883
      7       2.00000         -89.649567        -2439.48883
      8       2.00000         -89.649566        -2439.48882
      9       2.00000          -8.096933         -220.32875
     10       2.00000          -8.096919         -220.32837
     11       2.00000          -8.096919         -220.32837
     12       2.00000          -8.096861         -220.32681
     13       2.00000          -8.096860         -220.32678
     14       2.00000          -8.096798         -220.32508
     15       2.00000          -8.096798         -220.32508
     16       2.00000          -8.096770         -220.32433
     17       2.00000          -5.984084         -162.83521
     18       2.00000          -5.984026         -162.83364
     19       2.00000          -5.984026         -162.83364
     20       2.00000          -5.983884         -162.82976
     21       2.00000          -5.983883         -162.82974
     22       2.00000          -5.983735         -162.82570
     23       2.00000          -5.983735         -162.82570
     24       2.00000          -5.983689         -162.82447
     25       2.00000          -5.980628         -162.74117
     26       2.00000          -5.980595         -162.74028
     27       2.00000          -5.980595         -162.74028
     28       2.00000          -5.980519         -162.73821
     29       2.00000          -5.980518         -162.73818
     30       2.00000          -5.980449         -162.73628
     31       2.00000          -5.980449         -162.73628
     32       2.00000          -5.980421         -162.73554
     33       2.00000          -5.974798         -162.58252
     34       2.00000          -5.974797         -162.58249
     35       2.00000          -5.974797         -162.58249
     36       2.00000          -5.974797         -162.58249
     37       2.00000          -5.974796         -162.58247
     38       2.00000          -5.974796         -162.58246
     39       2.00000          -5.974796         -162.58246
     40       2.00000          -5.974794         -162.58243
     41       2.00000          -0.889674          -24.20927
     42       2.00000          -0.857131          -23.32373
     43       2.00000          -0.857131          -23.32373
     44       2.00000          -0.771145          -20.98391
     45       2.00000          -0.771143          -20.98388
     46       2.00000          -0.653894          -17.79337
     47       2.00000          -0.653894          -17.79337
     48       2.00000          -0.574945          -15.64506
     49       2.00000          -0.474729          -12.91802
     50       2.00000          -0.449879          -12.24183
     51       2.00000          -0.449879          -12.24183
     52       2.00000          -0.418521          -11.38853
     53       2.00000          -0.385843          -10.49933
     54       2.00000          -0.385841          -10.49928
     55       2.00000          -0.381891          -10.39178
     56       2.00000          -0.381891          -10.39178
     57       2.00000          -0.346501           -9.42878
     58       2.00000          -0.287102           -7.81244
     59       2.00000          -0.287102           -7.81244
     60       2.00000          -0.279456           -7.60438
     61       2.00000          -0.279453           -7.60432
     62       2.00000          -0.269269           -7.32719
     63       2.00000          -0.269269           -7.32719
     64       2.00000          -0.263919           -7.18161
     65       0.00000          -0.097423           -2.65102
     66       0.00000          -0.097423           -2.65102
     67       0.00000          -0.084231           -2.29205
     68       0.00000          -0.049214           -1.33918
     69       0.00000          -0.049214           -1.33918
     70       0.00000          -0.047326           -1.28781
     71       0.00000          -0.042568           -1.15833
     72       0.00000          -0.042566           -1.15829
     73       0.00000           0.057355            1.56070
     74       0.00000           0.081999            2.23130
     75       0.00000           0.082000            2.23133
     76       0.00000           0.095946            2.61082
     77       0.00000           0.095946            2.61082
     78       0.00000           0.108022            2.93942
     79       0.00000           0.108022            2.93942
     80       0.00000           0.115772            3.15033
     81       0.00000           0.125134            3.40507
     82       0.00000           0.127479            3.46887
     83       0.00000           0.152573            4.15171
     84       0.00000           0.154094            4.19310
     85       0.00000           0.154094            4.19310
     86       0.00000           0.159131            4.33017
     87       0.00000           0.159132            4.33020
     88       0.00000           0.182131            4.95604

  Highest occupied state (VBM) at     -7.18160558 eV
  | Occupation number:      2.00000000

  Lowest unoccupied state (CBM) at    -2.65101754 eV
  | Occupation number:      0.00000000

  Overall HOMO-LUMO gap:      4.53058804 eV.
  | Chemical Potential                          :    -4.59257098 eV

  Self-consistency cycle converged.


------------------------------------------------------------
  End self-consistency iteration #    15       :  max(cpu_time)    wall_clock(cpu1)
  | Time for this iteration                     :        2.137 s           2.146 s
  | Charge density update                       :        0.000 s           0.000 s
  | Density mixing                              :        0.005 s           0.005 s
  | Hartree multipole update                    :        0.002 s           0.002 s
  | Hartree multipole summation                 :        0.046 s           0.046 s
  | Integration                                 :        0.211 s           0.211 s
  | Fock matrix evaluation                      :        1.863 s           1.872 s
  | Solution of K.-S. eqns.                     :        0.010 s           0.010 s
  | Total energy evaluation                     :        0.000 s           0.000 s

  Partial memory accounting:
  | Current value for overall tracked memory usage:
  |   Minimum:       14.607 MB (on task  8)
  |   Maximum:       45.025 MB (on task  1)
  |   Average:       29.549 MB
  | Peak value for overall tracked memory usage:
  |   Minimum:       16.280 MB (on task  8 after allocating wave)
  |   Maximum:       46.697 MB (on task  1 after allocating wave)
  |   Average:       31.213 MB
  | Largest tracked array allocation so far:
  |   Minimum:       13.782 MB (ovlp3fn for atom on task  0)
  |   Maximum:       22.052 MB (ovlp3fn for atom on task  1)
  |   Average:       17.917 MB
  Note:  These values currently only include a subset of arrays which are explicitly tracked.
  The "true" memory usage will be greater.
------------------------------------------------------------

  Energy and forces in a compact form:
  | Total energy uncorrected      :         -0.870405840571112E+05 eV
  | Total energy corrected        :         -0.870405840571112E+05 eV  <-- do not rely on this value for anything but (periodic) metals
  | Electronic free energy        :         -0.870405840571112E+05 eV

  ------------------------------------ 
  Start decomposition of the XC Energy 
  ------------------------------------ 
  X and C from original XC functional choice 
  Hartree-Fock Energy :        -48.272069071 Ha          -1313.549832096 eV
  X Energy            :       -200.484081081 Ha          -5455.449416436 eV
  C Energy            :         -5.008573632 Ha           -136.290222892 eV
  Total XC Energy     :       -205.492654713 Ha          -5591.739639328 eV
  ------------------------------------ 
  LDA X and C from self-consistent density 
  X Energy LDA        :       -185.546231864 Ha          -5048.969857776 eV
  C Energy LDA        :         -9.957390399 Ha           -270.954378761 eV
  ------------------------------------ 
  End decomposition of the XC Energy 
  ------------------------------------ 

------------------------------------------------------------

------------------------------------------------------------------------------
  Final output of selected total energy values:

  The following output summarizes some interesting total energy values
  at the end of a run (AFTER all relaxation, molecular dynamics, etc.).

  | Total energy of the DFT / Hartree-Fock s.c.f. calculation      :         -87040.584057111 eV
  | Final zero-broadening corrected energy (caution - metals only) :         -87040.584057111 eV
  | For reference only, the value of 1 Hartree used in FHI-aims is :             27.211384500 eV

  Before relying on these values, please be sure to understand exactly which
  total energy value is referred to by a given number. Different objects may
  all carry the same name 'total energy'. Definitions:

  Total energy of the DFT / Hartree-Fock s.c.f. calculation:
  | Note that this energy does not include ANY quantities calculated after the
  | s.c.f. cycle, in particular not ANY RPA, MP2, etc. many-body perturbation terms.

  Final zero-broadening corrected energy:
  | For metallic systems only, a broadening of the occupation numbers at the Fermi
  | level can be extrapolated back to zero broadening by an electron-gas inspired
  | formula. For all systems that are not real metals, this value can be
  | meaningless and should be avoided.

------------------------------------------------------------------------------
  Methods described in the following list of references were used in this FHI-aims run.
  If you publish the results, please make sure to cite these reference if they apply.
  FHI-aims is an academic code, and for our developers (often, Ph.D. students
  and postdocs), scientific credit in the community is essential.
  Thank you for helping us!

  For any use of FHI-aims, please cite:

    Volker Blum, Ralf Gehrke, Felix Hanke, Paula Havu, Ville Havu,
    Xinguo Ren, Karsten Reuter, and Matthias Scheffler
    'Ab initio molecular simulations with numeric atom-centered orbitals'
    Computer Physics Communications 180, 2175-2196 (2009)
    http://dx.doi.org/10.1016/j.cpc.2009.06.022


  For Hartree-Fock, hybrid functionals, or many-body perturbation theory used in your run, please cite:

    Xinguo Ren, Patrick Rinke, Volker Blum, Juergen Wieferink, Alex Tkatchenko,
    Andrea Sanfilippo, Karsten Reuter, and Matthias Scheffler,
    'Resolution-of-identity approach to Hartree-Fock, hybrid density functionals,
    RPA, MP2, and GW with numeric atom-centered orbital basis functions'
    New Journal of Physics 14, 053020 (2012).
    http://dx.doi.org/10.1088/1367-2630/14/5/053020


  The ELSI infrastructure was used in your run to solve the Kohn-Sham electronic structure.
  Please check out http://elsi-interchange.org to learn more.
  If scalability is important for your project, please acknowledge ELSI by citing:

    V. W-z. Yu, F. Corsetti, A. Garcia, W. P. Huhn, M. Jacquelin, W. Jia,
    B. Lange, L. Lin, J. Lu, W. Mi, A. Seifitokaldani, A. Vazquez-Mayagoitia,
    C. Yang, H. Yang, and V. Blum
    'ELSI: A unified software interface for Kohn-Sham electronic structure solvers'
    Computer Physics Communications 222, 267-285 (2018).
    http://dx.doi.org/10.1016/j.cpc.2017.09.007


  For the real-space grid partitioning and parallelization used in this calculation, please cite:

    Ville Havu, Volker Blum, Paula Havu, and Matthias Scheffler,
    'Efficient O(N) integration for all-electron electronic structure calculation'
    'using numerically tabulated basis functions'
    Journal of Computational Physics 228, 8367-8379 (2009).
    http://dx.doi.org/10.1016/j.jcp.2009.08.008


  The high-level electronic structure method used in your calculation
  employed our efficient localized resolution of identity for the Coulomb operator.
  Some calculations, especially large-scale hybrid density functional theory,
  are only possible thanks to this development. For this feature, please cite:

    Arvid Ihrig, Juergen Wieferink, Igor Ying Zhang, Matti Ropo, Xinguo Ren,
    Patrick Rinke, Matthias Scheffler, and Volker Blum,
    'Accurate localized resolution of identity approach for linear-scaling
    hybrid density functionals and for many-body perturbation theory'
    New Journal of Physics 117, 093020 (2015).
    http://dx.doi.org/10.1088/1367-2630/17/9/093020

  Of course, there are many other important community references, e.g., those cited in the
  above references. Our list is limited to references that describe implementations in the
  FHI-aims code. The reason is purely practical (length of this list) - please credit others as well.

------------------------------------------------------------
          Leaving FHI-aims.
          Date     :  20220514, Time     :  231011.499

          Computational steps:
          | Number of self-consistency cycles          :           15
          | Number of SCF (re)initializations          :            1

          Detailed time accounting                     :  max(cpu_time)    wall_clock(cpu1)
          | Total time                                  :       63.124 s          63.411 s
          | Preparation time                            :        0.478 s           0.477 s
          | Boundary condition initalization            :        0.000 s           0.000 s
          | Grid partitioning                           :        0.100 s           0.100 s
          | Preloading free-atom quantities on grid     :        0.045 s           0.045 s
          | Free-atom superposition energy              :        0.014 s           0.014 s
          | Total time for integrations                 :        3.429 s           3.428 s
          | Product basis setup: Total time             :       27.049 s          27.085 s
          | Total time evaluating exchange matrix       :       28.568 s          28.713 s
          | Total time for solution of K.-S. equations  :        0.174 s           0.174 s
          | Total time for density update               :        2.374 s           2.376 s
          | Total time for mixing                       :        0.058 s           0.058 s
          | Total time for Hartree multipole update     :        0.037 s           0.039 s
          | Total time for Hartree multipole sum        :        0.691 s           0.690 s
          | Total time for total energy evaluation      :        0.002 s           0.000 s
          | Total time for scaled ZORA corrections      :        0.000 s           0.000 s

          Partial memory accounting:
          | Residual value for overall tracked memory usage across tasks:     0.000000 MB (should be 0.000000 MB)
          | Peak values for overall tracked memory usage:
          |   Minimum:       16.280 MB (on task  8 after allocating wave)
          |   Maximum:       46.697 MB (on task  1 after allocating wave)
          |   Average:       31.213 MB
          | Largest tracked array allocation:
          |   Minimum:       13.782 MB (ovlp3fn for atom on task  0)
          |   Maximum:       22.052 MB (ovlp3fn for atom on task  1)
          |   Average:       17.917 MB
          Note:  These values currently only include a subset of arrays which are explicitly tracked.
          The "true" memory usage will be greater.

          Have a nice day.
------------------------------------------------------------
