------------------------------------------------------------
          Invoking FHI-aims ...

          When using FHI-aims, please cite the following reference:

            Volker Blum, Ralf Gehrke, Felix Hanke, Paula Havu,
            Ville Havu, Xinguo Ren, Karsten Reuter, and Matthias Scheffler,
            'Ab Initio Molecular Simulations with Numeric Atom-Centered Orbitals',
            Computer Physics Communications 180, 2175-2196 (2009)

          In addition, many other developments in FHI-aims are likely important for
          your particular application. A partial list of references is given at the end of
          this file. Thank you for giving credit to the authors of these developments.

          For any questions about FHI-aims, please visit our slack channel at

            https://fhi-aims.slack.com

          and our main development and support site at

            https://aims-git.rz-berlin.mpg.de .

          The latter site, in particular, has a wiki to collect information, as well
          as an issue tracker to log discussions, suggest improvements, and report issues
          or bugs. https://aims-git.rz-berlin.mpg.de is also the main development site
          of the project and all new and updated code versions can be obtained there.
          Please send an email to aims-coordinators@fhi-berlin.mpg.de and we will add
          you to these sites. They are for you and everyone is welcome there.

------------------------------------------------------------



  Date     :  20220923, Time     :  094701.190
  Time zero on CPU 1             :   0.100384400000000E+01  s.
  Internal wall clock time zero  :           433158421.190  s.

  FHI-aims created a unique identifier for this run for later identification
  aims_uuid : 7FBAA236-C51B-4318-A88E-2797F558B2F0

  Build configuration of the current instance of FHI-aims
  -------------------------------------------------------
  FHI-aims version      : 220619
  Commit number         : 375d76c9a
  CMake host system     : Linux-4.12.14-197.78_9.1.64-cray_shasta_c
  CMake version         : 3.22.1
  Fortran compiler      : /opt/cray/pe/craype/2.7.6/bin/ftn (GNU) version 10.2.0
  Fortran compiler flags: -O2 -fallow-argument-mismatch -ffree-line-length-none
  C compiler            : /opt/cray/pe/craype/2.7.6/bin/cc (GNU) version 10.2.0
  C compiler flags      : -O2
  Using MPI
  Using ScaLAPACK
  Using LibXC
  Using i-PI
  Using RLSY
  Linking against:

  Using      256 parallel tasks.
  Task        0 on host nid001324 reporting.
  Task        1 on host nid001324 reporting.
  Task        2 on host nid001324 reporting.
  Task        3 on host nid001324 reporting.
  Task        4 on host nid001324 reporting.
  Task        5 on host nid001324 reporting.
  Task        6 on host nid001324 reporting.
  Task        7 on host nid001324 reporting.
  Task        8 on host nid001324 reporting.
  Task        9 on host nid001324 reporting.
  Task       10 on host nid001324 reporting.
  Task       11 on host nid001324 reporting.
  Task       12 on host nid001324 reporting.
  Task       13 on host nid001324 reporting.
  Task       14 on host nid001324 reporting.
  Task       15 on host nid001324 reporting.
  Task       16 on host nid001324 reporting.
  Task       17 on host nid001324 reporting.
  Task       18 on host nid001324 reporting.
  Task       19 on host nid001324 reporting.
  Task       20 on host nid001324 reporting.
  Task       21 on host nid001324 reporting.
  Task       22 on host nid001324 reporting.
  Task       23 on host nid001324 reporting.
  Task       24 on host nid001324 reporting.
  Task       25 on host nid001324 reporting.
  Task       26 on host nid001324 reporting.
  Task       27 on host nid001324 reporting.
  Task       28 on host nid001324 reporting.
  Task       29 on host nid001324 reporting.
  Task       30 on host nid001324 reporting.
  Task       31 on host nid001324 reporting.
  Task       32 on host nid001324 reporting.
  Task       33 on host nid001324 reporting.
  Task       34 on host nid001324 reporting.
  Task       35 on host nid001324 reporting.
  Task       36 on host nid001324 reporting.
  Task       37 on host nid001324 reporting.
  Task       38 on host nid001324 reporting.
  Task       39 on host nid001324 reporting.
  Task       40 on host nid001324 reporting.
  Task       41 on host nid001324 reporting.
  Task       42 on host nid001324 reporting.
  Task       43 on host nid001324 reporting.
  Task       44 on host nid001324 reporting.
  Task       45 on host nid001324 reporting.
  Task       46 on host nid001324 reporting.
  Task       47 on host nid001324 reporting.
  Task       48 on host nid001324 reporting.
  Task       49 on host nid001324 reporting.
  Task       50 on host nid001324 reporting.
  Task       51 on host nid001324 reporting.
  Task       52 on host nid001324 reporting.
  Task       53 on host nid001324 reporting.
  Task       54 on host nid001324 reporting.
  Task       55 on host nid001324 reporting.
  Task       56 on host nid001324 reporting.
  Task       57 on host nid001324 reporting.
  Task       58 on host nid001324 reporting.
  Task       59 on host nid001324 reporting.
  Task       60 on host nid001324 reporting.
  Task       61 on host nid001324 reporting.
  Task       62 on host nid001324 reporting.
  Task       63 on host nid001324 reporting.
  Task       64 on host nid001333 reporting.
  Task       65 on host nid001333 reporting.
  Task       66 on host nid001333 reporting.
  Task       67 on host nid001333 reporting.
  Task       68 on host nid001333 reporting.
  Task       69 on host nid001333 reporting.
  Task       70 on host nid001333 reporting.
  Task       71 on host nid001333 reporting.
  Task       72 on host nid001333 reporting.
  Task       73 on host nid001333 reporting.
  Task       74 on host nid001333 reporting.
  Task       75 on host nid001333 reporting.
  Task       76 on host nid001333 reporting.
  Task       77 on host nid001333 reporting.
  Task       78 on host nid001333 reporting.
  Task       79 on host nid001333 reporting.
  Task       80 on host nid001333 reporting.
  Task       81 on host nid001333 reporting.
  Task       82 on host nid001333 reporting.
  Task       83 on host nid001333 reporting.
  Task       84 on host nid001333 reporting.
  Task       85 on host nid001333 reporting.
  Task       86 on host nid001333 reporting.
  Task       87 on host nid001333 reporting.
  Task       88 on host nid001333 reporting.
  Task       89 on host nid001333 reporting.
  Task       90 on host nid001333 reporting.
  Task       91 on host nid001333 reporting.
  Task       92 on host nid001333 reporting.
  Task       93 on host nid001333 reporting.
  Task       94 on host nid001333 reporting.
  Task       95 on host nid001333 reporting.
  Task       96 on host nid001333 reporting.
  Task       97 on host nid001333 reporting.
  Task       98 on host nid001333 reporting.
  Task       99 on host nid001333 reporting.
  Task      100 on host nid001333 reporting.
  Task      101 on host nid001333 reporting.
  Task      102 on host nid001333 reporting.
  Task      103 on host nid001333 reporting.
  Task      104 on host nid001333 reporting.
  Task      105 on host nid001333 reporting.
  Task      106 on host nid001333 reporting.
  Task      107 on host nid001333 reporting.
  Task      108 on host nid001333 reporting.
  Task      109 on host nid001333 reporting.
  Task      110 on host nid001333 reporting.
  Task      111 on host nid001333 reporting.
  Task      112 on host nid001333 reporting.
  Task      113 on host nid001333 reporting.
  Task      114 on host nid001333 reporting.
  Task      115 on host nid001333 reporting.
  Task      116 on host nid001333 reporting.
  Task      117 on host nid001333 reporting.
  Task      118 on host nid001333 reporting.
  Task      119 on host nid001333 reporting.
  Task      120 on host nid001333 reporting.
  Task      121 on host nid001333 reporting.
  Task      122 on host nid001333 reporting.
  Task      123 on host nid001333 reporting.
  Task      124 on host nid001333 reporting.
  Task      125 on host nid001333 reporting.
  Task      126 on host nid001333 reporting.
  Task      127 on host nid001333 reporting.
  Task      128 on host nid001365 reporting.
  Task      129 on host nid001365 reporting.
  Task      130 on host nid001365 reporting.
  Task      131 on host nid001365 reporting.
  Task      132 on host nid001365 reporting.
  Task      133 on host nid001365 reporting.
  Task      134 on host nid001365 reporting.
  Task      135 on host nid001365 reporting.
  Task      136 on host nid001365 reporting.
  Task      137 on host nid001365 reporting.
  Task      138 on host nid001365 reporting.
  Task      139 on host nid001365 reporting.
  Task      140 on host nid001365 reporting.
  Task      141 on host nid001365 reporting.
  Task      142 on host nid001365 reporting.
  Task      143 on host nid001365 reporting.
  Task      144 on host nid001365 reporting.
  Task      145 on host nid001365 reporting.
  Task      146 on host nid001365 reporting.
  Task      147 on host nid001365 reporting.
  Task      148 on host nid001365 reporting.
  Task      149 on host nid001365 reporting.
  Task      150 on host nid001365 reporting.
  Task      151 on host nid001365 reporting.
  Task      152 on host nid001365 reporting.
  Task      153 on host nid001365 reporting.
  Task      154 on host nid001365 reporting.
  Task      155 on host nid001365 reporting.
  Task      156 on host nid001365 reporting.
  Task      157 on host nid001365 reporting.
  Task      158 on host nid001365 reporting.
  Task      159 on host nid001365 reporting.
  Task      160 on host nid001365 reporting.
  Task      161 on host nid001365 reporting.
  Task      162 on host nid001365 reporting.
  Task      163 on host nid001365 reporting.
  Task      164 on host nid001365 reporting.
  Task      165 on host nid001365 reporting.
  Task      166 on host nid001365 reporting.
  Task      167 on host nid001365 reporting.
  Task      168 on host nid001365 reporting.
  Task      169 on host nid001365 reporting.
  Task      170 on host nid001365 reporting.
  Task      171 on host nid001365 reporting.
  Task      172 on host nid001365 reporting.
  Task      173 on host nid001365 reporting.
  Task      174 on host nid001365 reporting.
  Task      175 on host nid001365 reporting.
  Task      176 on host nid001365 reporting.
  Task      177 on host nid001365 reporting.
  Task      178 on host nid001365 reporting.
  Task      179 on host nid001365 reporting.
  Task      180 on host nid001365 reporting.
  Task      181 on host nid001365 reporting.
  Task      182 on host nid001365 reporting.
  Task      183 on host nid001365 reporting.
  Task      184 on host nid001365 reporting.
  Task      185 on host nid001365 reporting.
  Task      186 on host nid001365 reporting.
  Task      187 on host nid001365 reporting.
  Task      188 on host nid001365 reporting.
  Task      189 on host nid001365 reporting.
  Task      190 on host nid001365 reporting.
  Task      191 on host nid001365 reporting.
  Task      192 on host nid001369 reporting.
  Task      193 on host nid001369 reporting.
  Task      194 on host nid001369 reporting.
  Task      195 on host nid001369 reporting.
  Task      196 on host nid001369 reporting.
  Task      197 on host nid001369 reporting.
  Task      198 on host nid001369 reporting.
  Task      199 on host nid001369 reporting.
  Task      200 on host nid001369 reporting.
  Task      201 on host nid001369 reporting.
  Task      202 on host nid001369 reporting.
  Task      203 on host nid001369 reporting.
  Task      204 on host nid001369 reporting.
  Task      205 on host nid001369 reporting.
  Task      206 on host nid001369 reporting.
  Task      207 on host nid001369 reporting.
  Task      208 on host nid001369 reporting.
  Task      209 on host nid001369 reporting.
  Task      210 on host nid001369 reporting.
  Task      211 on host nid001369 reporting.
  Task      212 on host nid001369 reporting.
  Task      213 on host nid001369 reporting.
  Task      214 on host nid001369 reporting.
  Task      215 on host nid001369 reporting.
  Task      216 on host nid001369 reporting.
  Task      217 on host nid001369 reporting.
  Task      218 on host nid001369 reporting.
  Task      219 on host nid001369 reporting.
  Task      220 on host nid001369 reporting.
  Task      221 on host nid001369 reporting.
  Task      222 on host nid001369 reporting.
  Task      223 on host nid001369 reporting.
  Task      224 on host nid001369 reporting.
  Task      225 on host nid001369 reporting.
  Task      226 on host nid001369 reporting.
  Task      227 on host nid001369 reporting.
  Task      228 on host nid001369 reporting.
  Task      229 on host nid001369 reporting.
  Task      230 on host nid001369 reporting.
  Task      231 on host nid001369 reporting.
  Task      232 on host nid001369 reporting.
  Task      233 on host nid001369 reporting.
  Task      234 on host nid001369 reporting.
  Task      235 on host nid001369 reporting.
  Task      236 on host nid001369 reporting.
  Task      237 on host nid001369 reporting.
  Task      238 on host nid001369 reporting.
  Task      239 on host nid001369 reporting.
  Task      240 on host nid001369 reporting.
  Task      241 on host nid001369 reporting.
  Task      242 on host nid001369 reporting.
  Task      243 on host nid001369 reporting.
  Task      244 on host nid001369 reporting.
  Task      245 on host nid001369 reporting.
  Task      246 on host nid001369 reporting.
  Task      247 on host nid001369 reporting.
  Task      248 on host nid001369 reporting.
  Task      249 on host nid001369 reporting.
  Task      250 on host nid001369 reporting.
  Task      251 on host nid001369 reporting.
  Task      252 on host nid001369 reporting.
  Task      253 on host nid001369 reporting.
  Task      254 on host nid001369 reporting.
  Task      255 on host nid001369 reporting.

  Performing system and environment tests:
  | Environment variable OMP_NUM_THREADS correctly set to 1.
  | Checking for ScaLAPACK...
  | Testing pdtran()...
  | All pdtran() tests passed.

  Obtaining array dimensions for all initial allocations:
  
  -----------------------------------------------------------------------
  Parsing control.in (first pass over file, find array dimensions only).
  The contents of control.in will be repeated verbatim below
  unless switched off by setting 'verbatim_writeout .false.' .
  in the first line of control.in .
  -----------------------------------------------------------------------
  
  xc               pbesol
  charge           0.
  spin             none
  relativistic atomic_zora scalar
  k_grid                8 8 8
  sc_accuracy_rho       1E-7
  sc_accuracy_forces    1E-6
  relax_geometry trm    5E-3
  relax_unit_cell       full
  ################################################################################
  #
  #  FHI-aims code project
  #  Volker Blum, Fritz Haber Institute Berlin, 2009
  #
  #  Suggested "tight" defaults for Ba atom (to be pasted into control.in file)
  #
  #  The onset of the cutoff pot'l WAS set to 8 A by default, because the neutral
  #  Ba atom is a large atom. However, this is very expensive. The radius should be
  #  much smaller in real-world situations, where Ba will be ionic. Please check
  #  and reduce the cutoff radius explicitly.
  #
  #  2015/11/12 : f and g functions from tier2 added to default basis set choice.
  #               These functions make a difference in the "delta test".
  #               Reduced the default cutoff radius to 6AA. The free-atom 6s function
  #               requires more. However, 6AA is already VERY expensive for
  #               any production calculations. In fact, revisit this choice for
  #               ionic systems to see if a smaller cutoff radius will do.
  #
  ################################################################################
    species          Ba
  #     global species definitions
      nucleus        56
      mass           137.327
  #
      l_hartree      6
  #
      cut_pot        6.0  2.0  1.0
      basis_dep_cutoff    1e-4
  #
      radial_base    65  7.0
      radial_multiplier  2
      angular_grids specified
        division   0.6752  110
        division   0.9746  194
        division   1.2241  302
        division   1.3850  434
  #      division   1.4734  590
  #      division   1.6010  770
  #      division   4.8366  974
  #      outer_grid  974
        outer_grid  434
  ################################################################################
  #
  #  Definition of "minimal" basis
  #
  ################################################################################
  #     valence basis states
      valence      6  s   2.
      valence      5  p   6.
      valence      4  d  10.
  #     ion occupancy
      ion_occ      6  s   1.
      ion_occ      5  p   6.
      ion_occ      4  d  10.
  ################################################################################
  #
  #  Suggested additional basis functions. For production calculations,
  #  uncomment them one after another (the most important basis functions are
  #  listed first).
  #
  #  Constructed for dimers: 2.65, 3.00, 3.50, 4.40, 5.50 Ang
  #
  ################################################################################
  #  "First tier" - improvements: -1277.43 meV to -9.16 meV
       ionic 5 d auto
       ionic 4 f auto
       hydro 3 p 2.7
       hydro 4 s 3.3
  #  "Second tier" - improvements: -64.04 (!) meV to -0.25 meV
       hydro 4 f 5.8
       hydro 5 g 7.4
  #     hydro 4 d 4.5
  #     hydro 6 h 11.2
  #     hydro 5 p 6.6
  #     hydro 2 s 3.2
  #  "Third tier" - max. impr. -1.16 meV, min. impr. -0.08 meV
  #     hydro 5 f 7.4
  #     hydro 5 g 10.8
  #     hydro 4 d 2.3
  #     hydro 4 p 3.7
  #     hydro 5 s 4.0
  #  Further functions - impr. -0.35 meV and below
  #     hydro 5 d 3.5
  #     hydro 6 d 0.4
  #     hydro 2 p 2.5
  #     hydro 5 f 12
  #     hydro 6 d 8.8
  ################################################################################
  #
  #  FHI-aims code project
  #  Volker Blum, Fritz Haber Institute Berlin, 2009
  #
  #  Suggested "tight" defaults for Zr atom (to be pasted into control.in file)
  #
  ################################################################################
    species          Zr
  #     global species definitions
      nucleus        40
      mass           91.224
  #
      l_hartree      6
  #
      cut_pot        4.0  2.0  1.0
      basis_dep_cutoff    1e-4
  #
      radial_base    58  7.0
      radial_multiplier  2
      angular_grids specified
        division   0.3653   50
        division   0.8035  110
        division   1.2273  194
        division   1.4586  302
        division   1.6764  434
  #      division   1.9671  590
  #      division   2.1961  770
  #      division   2.3240  974
  #      division   3.4772 1202
  #      outer_grid  974
        outer_grid  434
  ################################################################################
  #
  #  Definition of "minimal" basis
  #
  ################################################################################
  #     valence basis states
      valence      5  s   2.
      valence      4  p   6.
      valence      4  d   2.
  #     ion occupancy
      ion_occ      5  s   1.
      ion_occ      4  p   6.
      ion_occ      4  d   1.
  ################################################################################
  #
  #  Suggested additional basis functions. For production calculations,
  #  uncomment them one after another (the most important basis functions are
  #  listed first).
  #
  #  Constructed for dimers: 1.9, 2.25, 3.00, 4.00 Ang
  #
  ################################################################################
  #  "First tier" - improvements: -605.96 meV to -18.06 meV
       hydro 4 f 7.2
       ionic 4 d auto
       ionic 5 p auto
       hydro 5 g 10.4
       ionic 5 s auto
  #  "Second tier" - improvements: -32.47 meV to -1.41 meV
  #     hydro 4 f 10.4
  #     hydro 6 h 14.8
  #     hydro 4 d 6.2
  #     hydro 4 p 4.4
  #     hydro 4 f 20
  #     hydro 5 s 6
  #  "Third tier" - improvements: -1.99 meV and lower.
  #     hydro 4 f 5.8
  #     hydro 5 g 10.8
  #     hydro 2 p 1
  #     hydro 3 d 8
  #     hydro 6 h 14.4
  #     hydro 1 s 0.9
  #  Further functions (approx -0.40 meV and below possible)
  ################################################################################
  #
  #  FHI-aims code project
  #  Volker Blum, Fritz Haber Institute Berlin, 2009
  #
  #  Suggested "tight" defaults for S atom (to be pasted into control.in file)
  #
  #  Revised Jan 04, 2011, following tests (SiC) done by Lydia Nemec:
  #     d and g functions of tier 2 now enabled by default.
  #
  ################################################################################
    species        S
  #     global species definitions
      nucleus             16
      mass                32.065
  #
      l_hartree           6
  #
      cut_pot             4.0          2.0  1.0
      basis_dep_cutoff    1e-4
  #
      radial_base         44 7.0
      radial_multiplier   2
      angular_grids       specified
        division   0.4665  110
        division   0.5810  194
        division   0.7139  302
        division   0.8274  434
  #      division   0.9105  590
  #      division   1.0975  770
  #      division   1.2028  974
  #      outer_grid  974
        outer_grid  434
  ################################################################################
  #
  #  Definition of "minimal" basis
  #
  ################################################################################
  #     valence basis states
      valence      3  s   2.
      valence      3  p   4.
  #     ion occupancy
      ion_occ      3  s   1.
      ion_occ      3  p   3.
  ################################################################################
  #
  #  Suggested additional basis functions. For production calculations,
  #  uncomment them one after another (the most important basis functions are
  #  listed first).
  #
  #  Constructed for dimers: 1.6 A, 1.9 A, 2.5 A, 3.25 A, 4.0 A
  #
  ################################################################################
  #  "First tier" - improvements: -652.81 meV to -45.53 meV
       ionic 3 d auto
       hydro 2 p 1.8
       hydro 4 f 7
       ionic 3 s auto
  #  "Second tier" - improvements: -30.20 meV to -1.74 meV
       hydro 4 d 6.2
       hydro 5 g 10.8
  #     hydro 4 p 4.9
  #     hydro 5 f 10
  #     hydro 1 s 0.8
  #  "Third tier" - improvements: -1.04 meV to -0.20 meV
  #     hydro 3 d 3.9
  #     hydro 3 d 2.7
  #     hydro 5 g 12
  #     hydro 4 p 10.4
  #     hydro 5 f 12.4
  #     hydro 2 s 1.9
  #  "Fourth tier" - improvements: -0.35 meV to -0.06 meV
  #     hydro 4 d 10.4
  #     hydro 4 p 7.2
  #     hydro 4 d 10
  #     hydro 5 g 19.2
  #     hydro 4 s 12
  
  ################################################################################
  #
  # For methods that use the localized form of the "resolution of identity" for
  # the two-electron Coulomb operator (RI_method LVL), particularly Hartree-Fock and
  # hybrid density functional calculations, the highest accuracy can be obtained by
  # uncommenting the line beginning with "for_aux"  below, thus adding an extra g radial
  # function to the construction of the product basis set for the expansion.
  # See Ref. New J. Phys. 17, 093020 (2015) for more information, particularly Figs. 1 and 6.
  #
  ################################################################################
  #
  # for_aux hydro 5 g 6.0
  
  -----------------------------------------------------------------------
  Completed first pass over input file control.in .
  -----------------------------------------------------------------------
  
  
  -----------------------------------------------------------------------
  Parsing geometry.in (first pass over file, find array dimensions only).
  The contents of geometry.in will be repeated verbatim below
  unless switched off by setting 'verbatim_writeout .false.' .
  in the first line of geometry.in .
  -----------------------------------------------------------------------
  
  lattice_vector -3.0485500000000001 3.0485500000000001 8.0791501456799999
  lattice_vector 3.0485500000000001 -3.0485500000000001 8.0791501456799999
  lattice_vector 3.0485500000000001 3.0485500000000001 -8.0791501456799999
  atom_frac 0.7995887300000001 0.7995887300000001 -0.0000000000000000 Ba
  atom_frac 0.5495887300000004 0.0495887300000000 0.5000000000000001 Ba
  atom_frac 0.2044708299999999 0.2044708300000000 0.0000000000000000 Ba
  atom_frac 0.9544708299999999 0.4544708299999999 0.4999999999999999 Ba
  atom_frac 0.9991779000000004 0.9991779000000000 0.0000000000000001 S
  atom_frac 0.7491779000000004 0.2491778999999999 0.5000000000000001 S
  atom_frac 0.9688955600000002 0.6419812699999999 0.3269142900000000 S
  atom_frac 0.3150669800000002 0.6419812700000000 0.6730857100000001 S
  atom_frac 0.3919812700000000 0.5650669800000001 0.1730857100000000 S
  atom_frac 0.3919812700000003 0.2188955600000000 0.8269142899999999 S
  symmetry_n_params 7 2 5
  symmetry_params a c z1 z2 z3 y4 z4
  symmetry_lv -0.5*a, 0.5*a, 0.5*c
  symmetry_lv 0.5*a, -0.5*a, 0.5*c
  symmetry_lv 0.5*a, 0.5*a, -0.5*c
  symmetry_frac z1, z1, 0
  symmetry_frac -0.25 + z1, -0.75 + z1, 0.5
  symmetry_frac z2, z2, 0
  symmetry_frac 0.75 + z2, 0.25 + z2, 0.5
  symmetry_frac z3, z3, 0
  symmetry_frac -0.25 + z3, -0.75 + z3, 0.5
  symmetry_frac y4 + z4, z4, y4
  symmetry_frac -y4 + z4, z4, 1 - y4
  symmetry_frac -0.25 + z4, 0.25 - y4 + z4, 0.5 - y4
  symmetry_frac -0.25 + z4, -0.75 + y4 + z4, 0.5 + y4
  
  -----------------------------------------------------------------------
  Completed first pass over input file geometry.in .
  -----------------------------------------------------------------------
  

  Basic array size parameters:
  | Number of species                 :        3
  | Number of atoms                   :       10
  | Number of lattice vectors         :        3
  | Max. basis fn. angular momentum   :        4
  | Max. atomic/ionic basis occupied n:        6
  | Max. number of basis fn. types    :        3
  | Max. radial fns per species/type  :       12
  | Max. logarithmic grid size        :     1460
  | Max. radial integration grid size :      131
  | Max. angular integration grid size:      434
  | Max. angular grid division number :        8
  | Radial grid for Hartree potential :     1460
  | Number of spin channels           :        1

------------------------------------------------------------
          Reading file control.in.
------------------------------------------------------------
  XC: Using PBEsol gradient-corrected functionals.
  Charge =   0.000000E+00: Neutral system requested explicitly.
  Spin treatment: No spin polarisation.
  Scalar relativistic treatment of kinetic energy: on-site free-atom approximation to ZORA.
  Found k-point grid:         8         8         8
  Convergence accuracy of self-consistent charge density:  0.1000E-06
  Convergence accuracy of forces:  0.1000E-05
  Geometry relaxation: Modified BFGS - TRM (trust radius method) for lattice optimization.
  Convergence accuracy for geometry relaxation: Maximum force <   0.500000E-02 eV/A.

  Reading configuration options for species Ba                  .
  | Found nuclear charge :  56.0000
  | Found atomic mass :    137.32700000000000      amu
  | Found l_max for Hartree potential  :   6
  | Found cutoff potl. onset [A], width [A], scale factor :    6.00000    2.00000    1.00000
  | Threshold for basis-dependent cutoff potential is   0.100000E-03
  | Found data for basic radial integration grid :    65 points, outermost radius =    7.000 A
  | Found multiplier for basic radial grid :   2
  | Found angular grid specification: user-specified.
  | Specified grid contains     5 separate shells.
  | Check grid settings after all constraints further below.
  | Found free-atom valence shell :  6 s   2.000
  | Found free-atom valence shell :  5 p   6.000
  | Found free-atom valence shell :  4 d  10.000
  | Found free-ion valence shell :  6 s   1.000
  | Found free-ion valence shell :  5 p   6.000
  | Found free-ion valence shell :  4 d  10.000
  | Found ionic basis function :  5 d , default cutoff radius.
  | Found ionic basis function :  4 f , default cutoff radius.
  | Found hydrogenic basis function :  3 p   2.700
  | Found hydrogenic basis function :  4 s   3.300
  | Found hydrogenic basis function :  4 f   5.800
  | Found hydrogenic basis function :  5 g   7.400
  Species Ba                  : Missing cutoff potential type.
  Defaulting to exp(1/x)/(1-x)^2 type cutoff potential.
  Species Ba: No 'logarithmic' tag. Using default grid for free atom:
  | Default logarithmic grid data [bohr] : 0.1000E-03 0.1000E+03 0.1012E+01
  | Will include ionic basis functions of  1.0-fold positive Ba                   ion.
  Species Ba: On-site basis accuracy parameter (for Gram-Schmidt orthonormalisation) not specified.
  Using default value basis_acc =  0.1000000E-03.
  Species Ba                  : Using default innermost maximum threshold i_radial=  2 for radial functions.
  Species Ba                  : Default cutoff onset for free atom density etc. : 0.60000000E+01 AA.
  Species Ba                  : Basic radial grid will be enhanced according to radial_multiplier =   2, to contain   131 grid points.

  Reading configuration options for species Zr                  .
  | Found nuclear charge :  40.0000
  | Found atomic mass :    91.224000000000004      amu
  | Found l_max for Hartree potential  :   6
  | Found cutoff potl. onset [A], width [A], scale factor :    4.00000    2.00000    1.00000
  | Threshold for basis-dependent cutoff potential is   0.100000E-03
  | Found data for basic radial integration grid :    58 points, outermost radius =    7.000 A
  | Found multiplier for basic radial grid :   2
  | Found angular grid specification: user-specified.
  | Specified grid contains     6 separate shells.
  | Check grid settings after all constraints further below.
  | Found free-atom valence shell :  5 s   2.000
  | Found free-atom valence shell :  4 p   6.000
  | Found free-atom valence shell :  4 d   2.000
  | Found free-ion valence shell :  5 s   1.000
  | Found free-ion valence shell :  4 p   6.000
  | Found free-ion valence shell :  4 d   1.000
  | Found hydrogenic basis function :  4 f   7.200
  | Found ionic basis function :  4 d , default cutoff radius.
  | Found ionic basis function :  5 p , default cutoff radius.
  | Found hydrogenic basis function :  5 g  10.400
  | Found ionic basis function :  5 s , default cutoff radius.
  Species Zr                  : Missing cutoff potential type.
  Defaulting to exp(1/x)/(1-x)^2 type cutoff potential.
  Species Zr: No 'logarithmic' tag. Using default grid for free atom:
  | Default logarithmic grid data [bohr] : 0.1000E-03 0.1000E+03 0.1012E+01
  | Will include ionic basis functions of  2.0-fold positive Zr                   ion.
  Species Zr: On-site basis accuracy parameter (for Gram-Schmidt orthonormalisation) not specified.
  Using default value basis_acc =  0.1000000E-03.
  Species Zr                  : Using default innermost maximum threshold i_radial=  2 for radial functions.
  Species Zr                  : Default cutoff onset for free atom density etc. : 0.40000000E+01 AA.
  Species Zr                  : Basic radial grid will be enhanced according to radial_multiplier =   2, to contain   117 grid points.

  Reading configuration options for species S                   .
  | Found nuclear charge :  16.0000
  | Found atomic mass :    32.064999999999998      amu
  | Found l_max for Hartree potential  :   6
  | Found cutoff potl. onset [A], width [A], scale factor :    4.00000    2.00000    1.00000
  | Threshold for basis-dependent cutoff potential is   0.100000E-03
  | Found data for basic radial integration grid :    44 points, outermost radius =    7.000 A
  | Found multiplier for basic radial grid :   2
  | Found angular grid specification: user-specified.
  | Specified grid contains     5 separate shells.
  | Check grid settings after all constraints further below.
  | Found free-atom valence shell :  3 s   2.000
  | Found free-atom valence shell :  3 p   4.000
  | Found free-ion valence shell :  3 s   1.000
  | Found free-ion valence shell :  3 p   3.000
  | Found ionic basis function :  3 d , default cutoff radius.
  | Found hydrogenic basis function :  2 p   1.800
  | Found hydrogenic basis function :  4 f   7.000
  | Found ionic basis function :  3 s , default cutoff radius.
  | Found hydrogenic basis function :  4 d   6.200
  | Found hydrogenic basis function :  5 g  10.800
  Species S                   : Missing cutoff potential type.
  Defaulting to exp(1/x)/(1-x)^2 type cutoff potential.
  Species S : No 'logarithmic' tag. Using default grid for free atom:
  | Default logarithmic grid data [bohr] : 0.1000E-03 0.1000E+03 0.1012E+01
  | Will include ionic basis functions of  2.0-fold positive S                    ion.
  Species S : On-site basis accuracy parameter (for Gram-Schmidt orthonormalisation) not specified.
  Using default value basis_acc =  0.1000000E-03.
  Species S                   : Using default innermost maximum threshold i_radial=  2 for radial functions.
  Species S                   : Default cutoff onset for free atom density etc. : 0.40000000E+01 AA.
  Species S                   : Basic radial grid will be enhanced according to radial_multiplier =   2, to contain    89 grid points.

  Finished reading input file 'control.in'.

------------------------------------------------------------


------------------------------------------------------------
          Reading geometry description geometry.in.
------------------------------------------------------------
  | The smallest distance between any two atoms is         2.11064176 AA.
  | The first atom of this pair is atom number                      8 .
  | The second atom of this pair is atom number                     7 .
  | Wigner-Seitz cell of the first atom image           0     0     1 .
  | (The Wigner-Seitz cell of the second atom is 0 0 0  by definition.)

  Symmetry information by spglib:
  | Precision set to  0.1E-04
  | Number of Operations  : 8
  | Space group           : 109
  | International         : I4_1md
  | Schoenflies           : C4v^11
  Input structure read successfully.
  The structure contains       10 atoms,  and a total of        320.000 electrons.

  Input geometry:
  | Unit cell:
  |       -3.04855000        3.04855000        8.07915015
  |        3.04855000       -3.04855000        8.07915015
  |        3.04855000        3.04855000       -8.07915015
  | Atomic structure:
  |       Atom                x [A]            y [A]            z [A]
  |    1: Species Ba           -0.00000000        0.00000000       12.91999481
  |    2: Species Ba           -0.00000000        3.04855000        0.80126959
  |    3: Species Ba            0.00000000       -0.00000000        3.30390107
  |    4: Species Ba           -0.00000000        3.04855000        7.34347614
  |    5: Species S            -0.00000000        0.00000000       16.14501655
  |    6: Species S            -0.00000000        3.04855000        4.02629133
  |    7: Species S            -0.00000000        1.99322912       10.37332614
  |    8: Species S             3.04855000        1.05532088        2.29417600
  |    9: Species S             1.05532088       -0.00000000        6.33375107
  |   10: Species S             1.99322912        3.04855000       -1.74539908

  Lattice parameters for 3D lattice (in Angstroms) :     9.157510    9.157510    9.157510
  Angle(s) between unit vectors (in degrees)       :   141.110023  141.110023   56.171701


  Quantities derived from the lattice vectors (in Angstrom^-1):
  | Reciprocal lattice vector 1:  0.000000  1.030520  0.388852
  | Reciprocal lattice vector 2:  1.030520  0.000000  0.388852
  | Reciprocal lattice vector 3:  1.030520  1.030520  0.000000
  | Unit cell volume                               :   0.300339E+03  Angstrom^3

  Fractional coordinates:
                         L1                L2                L3
       atom_frac         0.79958873        0.79958873        0.00000000  Ba
       atom_frac         0.54958873        0.04958873        0.50000000  Ba
       atom_frac         0.20447083        0.20447083        0.00000000  Ba
       atom_frac         0.95447083        0.45447083        0.50000000  Ba
       atom_frac         0.99917790        0.99917790        0.00000000  S
       atom_frac         0.74917790        0.24917790        0.50000000  S
       atom_frac         0.96889556        0.64198127        0.32691429  S
       atom_frac         0.31506698        0.64198127        0.67308571  S
       atom_frac         0.39198127        0.56506698        0.17308571  S
       atom_frac         0.39198127        0.21889556        0.82691429  S


  Finished reading input file 'control.in'.


------------------------------------------------------------
          Reading geometry description geometry.in.
------------------------------------------------------------

  Consistency checks for stacksize environment parameter are next.

  | Maximum stacksize for task 0: unlimited
  | Maximum stacksize for task 1: unlimited
  | Maximum stacksize for task 2: unlimited
  | Maximum stacksize for task 3: unlimited
  | Maximum stacksize for task 4: unlimited
  | Maximum stacksize for task 5: unlimited
  | Maximum stacksize for task 6: unlimited
  | Maximum stacksize for task 7: unlimited
  | Maximum stacksize for task 8: unlimited
  | Maximum stacksize for task 9: unlimited
  | Maximum stacksize for task 10: unlimited
  | Maximum stacksize for task 11: unlimited
  | Maximum stacksize for task 12: unlimited
  | Maximum stacksize for task 13: unlimited
  | Maximum stacksize for task 14: unlimited
  | Maximum stacksize for task 15: unlimited
  | Maximum stacksize for task 16: unlimited
  | Maximum stacksize for task 17: unlimited
  | Maximum stacksize for task 18: unlimited
  | Maximum stacksize for task 19: unlimited
  | Maximum stacksize for task 20: unlimited
  | Maximum stacksize for task 21: unlimited
  | Maximum stacksize for task 22: unlimited
  | Maximum stacksize for task 23: unlimited
  | Maximum stacksize for task 24: unlimited
  | Maximum stacksize for task 25: unlimited
  | Maximum stacksize for task 26: unlimited
  | Maximum stacksize for task 27: unlimited
  | Maximum stacksize for task 28: unlimited
  | Maximum stacksize for task 29: unlimited
  | Maximum stacksize for task 30: unlimited
  | Maximum stacksize for task 31: unlimited
  | Maximum stacksize for task 32: unlimited
  | Maximum stacksize for task 33: unlimited
  | Maximum stacksize for task 34: unlimited
  | Maximum stacksize for task 35: unlimited
  | Maximum stacksize for task 36: unlimited
  | Maximum stacksize for task 37: unlimited
  | Maximum stacksize for task 38: unlimited
  | Maximum stacksize for task 39: unlimited
  | Maximum stacksize for task 40: unlimited
  | Maximum stacksize for task 41: unlimited
  | Maximum stacksize for task 42: unlimited
  | Maximum stacksize for task 43: unlimited
  | Maximum stacksize for task 44: unlimited
  | Maximum stacksize for task 45: unlimited
  | Maximum stacksize for task 46: unlimited
  | Maximum stacksize for task 47: unlimited
  | Maximum stacksize for task 48: unlimited
  | Maximum stacksize for task 49: unlimited
  | Maximum stacksize for task 50: unlimited
  | Maximum stacksize for task 51: unlimited
  | Maximum stacksize for task 52: unlimited
  | Maximum stacksize for task 53: unlimited
  | Maximum stacksize for task 54: unlimited
  | Maximum stacksize for task 55: unlimited
  | Maximum stacksize for task 56: unlimited
  | Maximum stacksize for task 57: unlimited
  | Maximum stacksize for task 58: unlimited
  | Maximum stacksize for task 59: unlimited
  | Maximum stacksize for task 60: unlimited
  | Maximum stacksize for task 61: unlimited
  | Maximum stacksize for task 62: unlimited
  | Maximum stacksize for task 63: unlimited
  | Maximum stacksize for task 64: unlimited
  | Maximum stacksize for task 65: unlimited
  | Maximum stacksize for task 66: unlimited
  | Maximum stacksize for task 67: unlimited
  | Maximum stacksize for task 68: unlimited
  | Maximum stacksize for task 69: unlimited
  | Maximum stacksize for task 70: unlimited
  | Maximum stacksize for task 71: unlimited
  | Maximum stacksize for task 72: unlimited
  | Maximum stacksize for task 73: unlimited
  | Maximum stacksize for task 74: unlimited
  | Maximum stacksize for task 75: unlimited
  | Maximum stacksize for task 76: unlimited
  | Maximum stacksize for task 77: unlimited
  | Maximum stacksize for task 78: unlimited
  | Maximum stacksize for task 79: unlimited
  | Maximum stacksize for task 80: unlimited
  | Maximum stacksize for task 81: unlimited
  | Maximum stacksize for task 82: unlimited
  | Maximum stacksize for task 83: unlimited
  | Maximum stacksize for task 84: unlimited
  | Maximum stacksize for task 85: unlimited
  | Maximum stacksize for task 86: unlimited
  | Maximum stacksize for task 87: unlimited
  | Maximum stacksize for task 88: unlimited
  | Maximum stacksize for task 89: unlimited
  | Maximum stacksize for task 90: unlimited
  | Maximum stacksize for task 91: unlimited
  | Maximum stacksize for task 92: unlimited
  | Maximum stacksize for task 93: unlimited
  | Maximum stacksize for task 94: unlimited
  | Maximum stacksize for task 95: unlimited
  | Maximum stacksize for task 96: unlimited
  | Maximum stacksize for task 97: unlimited
  | Maximum stacksize for task 98: unlimited
  | Maximum stacksize for task 99: unlimited
  | Maximum stacksize for task 100: unlimited
  | Maximum stacksize for task 101: unlimited
  | Maximum stacksize for task 102: unlimited
  | Maximum stacksize for task 103: unlimited
  | Maximum stacksize for task 104: unlimited
  | Maximum stacksize for task 105: unlimited
  | Maximum stacksize for task 106: unlimited
  | Maximum stacksize for task 107: unlimited
  | Maximum stacksize for task 108: unlimited
  | Maximum stacksize for task 109: unlimited
  | Maximum stacksize for task 110: unlimited
  | Maximum stacksize for task 111: unlimited
  | Maximum stacksize for task 112: unlimited
  | Maximum stacksize for task 113: unlimited
  | Maximum stacksize for task 114: unlimited
  | Maximum stacksize for task 115: unlimited
  | Maximum stacksize for task 116: unlimited
  | Maximum stacksize for task 117: unlimited
  | Maximum stacksize for task 118: unlimited
  | Maximum stacksize for task 119: unlimited
  | Maximum stacksize for task 120: unlimited
  | Maximum stacksize for task 121: unlimited
  | Maximum stacksize for task 122: unlimited
  | Maximum stacksize for task 123: unlimited
  | Maximum stacksize for task 124: unlimited
  | Maximum stacksize for task 125: unlimited
  | Maximum stacksize for task 126: unlimited
  | Maximum stacksize for task 127: unlimited
  | Maximum stacksize for task 128: unlimited
  | Maximum stacksize for task 129: unlimited
  | Maximum stacksize for task 130: unlimited
  | Maximum stacksize for task 131: unlimited
  | Maximum stacksize for task 132: unlimited
  | Maximum stacksize for task 133: unlimited
  | Maximum stacksize for task 134: unlimited
  | Maximum stacksize for task 135: unlimited
  | Maximum stacksize for task 136: unlimited
  | Maximum stacksize for task 137: unlimited
  | Maximum stacksize for task 138: unlimited
  | Maximum stacksize for task 139: unlimited
  | Maximum stacksize for task 140: unlimited
  | Maximum stacksize for task 141: unlimited
  | Maximum stacksize for task 142: unlimited
  | Maximum stacksize for task 143: unlimited
  | Maximum stacksize for task 144: unlimited
  | Maximum stacksize for task 145: unlimited
  | Maximum stacksize for task 146: unlimited
  | Maximum stacksize for task 147: unlimited
  | Maximum stacksize for task 148: unlimited
  | Maximum stacksize for task 149: unlimited
  | Maximum stacksize for task 150: unlimited
  | Maximum stacksize for task 151: unlimited
  | Maximum stacksize for task 152: unlimited
  | Maximum stacksize for task 153: unlimited
  | Maximum stacksize for task 154: unlimited
  | Maximum stacksize for task 155: unlimited
  | Maximum stacksize for task 156: unlimited
  | Maximum stacksize for task 157: unlimited
  | Maximum stacksize for task 158: unlimited
  | Maximum stacksize for task 159: unlimited
  | Maximum stacksize for task 160: unlimited
  | Maximum stacksize for task 161: unlimited
  | Maximum stacksize for task 162: unlimited
  | Maximum stacksize for task 163: unlimited
  | Maximum stacksize for task 164: unlimited
  | Maximum stacksize for task 165: unlimited
  | Maximum stacksize for task 166: unlimited
  | Maximum stacksize for task 167: unlimited
  | Maximum stacksize for task 168: unlimited
  | Maximum stacksize for task 169: unlimited
  | Maximum stacksize for task 170: unlimited
  | Maximum stacksize for task 171: unlimited
  | Maximum stacksize for task 172: unlimited
  | Maximum stacksize for task 173: unlimited
  | Maximum stacksize for task 174: unlimited
  | Maximum stacksize for task 175: unlimited
  | Maximum stacksize for task 176: unlimited
  | Maximum stacksize for task 177: unlimited
  | Maximum stacksize for task 178: unlimited
  | Maximum stacksize for task 179: unlimited
  | Maximum stacksize for task 180: unlimited
  | Maximum stacksize for task 181: unlimited
  | Maximum stacksize for task 182: unlimited
  | Maximum stacksize for task 183: unlimited
  | Maximum stacksize for task 184: unlimited
  | Maximum stacksize for task 185: unlimited
  | Maximum stacksize for task 186: unlimited
  | Maximum stacksize for task 187: unlimited
  | Maximum stacksize for task 188: unlimited
  | Maximum stacksize for task 189: unlimited
  | Maximum stacksize for task 190: unlimited
  | Maximum stacksize for task 191: unlimited
  | Maximum stacksize for task 192: unlimited
  | Maximum stacksize for task 193: unlimited
  | Maximum stacksize for task 194: unlimited
  | Maximum stacksize for task 195: unlimited
  | Maximum stacksize for task 196: unlimited
  | Maximum stacksize for task 197: unlimited
  | Maximum stacksize for task 198: unlimited
  | Maximum stacksize for task 199: unlimited
  | Maximum stacksize for task 200: unlimited
  | Maximum stacksize for task 201: unlimited
  | Maximum stacksize for task 202: unlimited
  | Maximum stacksize for task 203: unlimited
  | Maximum stacksize for task 204: unlimited
  | Maximum stacksize for task 205: unlimited
  | Maximum stacksize for task 206: unlimited
  | Maximum stacksize for task 207: unlimited
  | Maximum stacksize for task 208: unlimited
  | Maximum stacksize for task 209: unlimited
  | Maximum stacksize for task 210: unlimited
  | Maximum stacksize for task 211: unlimited
  | Maximum stacksize for task 212: unlimited
  | Maximum stacksize for task 213: unlimited
  | Maximum stacksize for task 214: unlimited
  | Maximum stacksize for task 215: unlimited
  | Maximum stacksize for task 216: unlimited
  | Maximum stacksize for task 217: unlimited
  | Maximum stacksize for task 218: unlimited
  | Maximum stacksize for task 219: unlimited
  | Maximum stacksize for task 220: unlimited
  | Maximum stacksize for task 221: unlimited
  | Maximum stacksize for task 222: unlimited
  | Maximum stacksize for task 223: unlimited
  | Maximum stacksize for task 224: unlimited
  | Maximum stacksize for task 225: unlimited
  | Maximum stacksize for task 226: unlimited
  | Maximum stacksize for task 227: unlimited
  | Maximum stacksize for task 228: unlimited
  | Maximum stacksize for task 229: unlimited
  | Maximum stacksize for task 230: unlimited
  | Maximum stacksize for task 231: unlimited
  | Maximum stacksize for task 232: unlimited
  | Maximum stacksize for task 233: unlimited
  | Maximum stacksize for task 234: unlimited
  | Maximum stacksize for task 235: unlimited
  | Maximum stacksize for task 236: unlimited
  | Maximum stacksize for task 237: unlimited
  | Maximum stacksize for task 238: unlimited
  | Maximum stacksize for task 239: unlimited
  | Maximum stacksize for task 240: unlimited
  | Maximum stacksize for task 241: unlimited
  | Maximum stacksize for task 242: unlimited
  | Maximum stacksize for task 243: unlimited
  | Maximum stacksize for task 244: unlimited
  | Maximum stacksize for task 245: unlimited
  | Maximum stacksize for task 246: unlimited
  | Maximum stacksize for task 247: unlimited
  | Maximum stacksize for task 248: unlimited
  | Maximum stacksize for task 249: unlimited
  | Maximum stacksize for task 250: unlimited
  | Maximum stacksize for task 251: unlimited
  | Maximum stacksize for task 252: unlimited
  | Maximum stacksize for task 253: unlimited
  | Maximum stacksize for task 254: unlimited
  | Maximum stacksize for task 255: unlimited
  | Current stacksize for task 0: unlimited
  | Current stacksize for task 1: unlimited
  | Current stacksize for task 2: unlimited
  | Current stacksize for task 3: unlimited
  | Current stacksize for task 4: unlimited
  | Current stacksize for task 5: unlimited
  | Current stacksize for task 6: unlimited
  | Current stacksize for task 7: unlimited
  | Current stacksize for task 8: unlimited
  | Current stacksize for task 9: unlimited
  | Current stacksize for task 10: unlimited
  | Current stacksize for task 11: unlimited
  | Current stacksize for task 12: unlimited
  | Current stacksize for task 13: unlimited
  | Current stacksize for task 14: unlimited
  | Current stacksize for task 15: unlimited
  | Current stacksize for task 16: unlimited
  | Current stacksize for task 17: unlimited
  | Current stacksize for task 18: unlimited
  | Current stacksize for task 19: unlimited
  | Current stacksize for task 20: unlimited
  | Current stacksize for task 21: unlimited
  | Current stacksize for task 22: unlimited
  | Current stacksize for task 23: unlimited
  | Current stacksize for task 24: unlimited
  | Current stacksize for task 25: unlimited
  | Current stacksize for task 26: unlimited
  | Current stacksize for task 27: unlimited
  | Current stacksize for task 28: unlimited
  | Current stacksize for task 29: unlimited
  | Current stacksize for task 30: unlimited
  | Current stacksize for task 31: unlimited
  | Current stacksize for task 32: unlimited
  | Current stacksize for task 33: unlimited
  | Current stacksize for task 34: unlimited
  | Current stacksize for task 35: unlimited
  | Current stacksize for task 36: unlimited
  | Current stacksize for task 37: unlimited
  | Current stacksize for task 38: unlimited
  | Current stacksize for task 39: unlimited
  | Current stacksize for task 40: unlimited
  | Current stacksize for task 41: unlimited
  | Current stacksize for task 42: unlimited
  | Current stacksize for task 43: unlimited
  | Current stacksize for task 44: unlimited
  | Current stacksize for task 45: unlimited
  | Current stacksize for task 46: unlimited
  | Current stacksize for task 47: unlimited
  | Current stacksize for task 48: unlimited
  | Current stacksize for task 49: unlimited
  | Current stacksize for task 50: unlimited
  | Current stacksize for task 51: unlimited
  | Current stacksize for task 52: unlimited
  | Current stacksize for task 53: unlimited
  | Current stacksize for task 54: unlimited
  | Current stacksize for task 55: unlimited
  | Current stacksize for task 56: unlimited
  | Current stacksize for task 57: unlimited
  | Current stacksize for task 58: unlimited
  | Current stacksize for task 59: unlimited
  | Current stacksize for task 60: unlimited
  | Current stacksize for task 61: unlimited
  | Current stacksize for task 62: unlimited
  | Current stacksize for task 63: unlimited
  | Current stacksize for task 64: unlimited
  | Current stacksize for task 65: unlimited
  | Current stacksize for task 66: unlimited
  | Current stacksize for task 67: unlimited
  | Current stacksize for task 68: unlimited
  | Current stacksize for task 69: unlimited
  | Current stacksize for task 70: unlimited
  | Current stacksize for task 71: unlimited
  | Current stacksize for task 72: unlimited
  | Current stacksize for task 73: unlimited
  | Current stacksize for task 74: unlimited
  | Current stacksize for task 75: unlimited
  | Current stacksize for task 76: unlimited
  | Current stacksize for task 77: unlimited
  | Current stacksize for task 78: unlimited
  | Current stacksize for task 79: unlimited
  | Current stacksize for task 80: unlimited
  | Current stacksize for task 81: unlimited
  | Current stacksize for task 82: unlimited
  | Current stacksize for task 83: unlimited
  | Current stacksize for task 84: unlimited
  | Current stacksize for task 85: unlimited
  | Current stacksize for task 86: unlimited
  | Current stacksize for task 87: unlimited
  | Current stacksize for task 88: unlimited
  | Current stacksize for task 89: unlimited
  | Current stacksize for task 90: unlimited
  | Current stacksize for task 91: unlimited
  | Current stacksize for task 92: unlimited
  | Current stacksize for task 93: unlimited
  | Current stacksize for task 94: unlimited
  | Current stacksize for task 95: unlimited
  | Current stacksize for task 96: unlimited
  | Current stacksize for task 97: unlimited
  | Current stacksize for task 98: unlimited
  | Current stacksize for task 99: unlimited
  | Current stacksize for task 100: unlimited
  | Current stacksize for task 101: unlimited
  | Current stacksize for task 102: unlimited
  | Current stacksize for task 103: unlimited
  | Current stacksize for task 104: unlimited
  | Current stacksize for task 105: unlimited
  | Current stacksize for task 106: unlimited
  | Current stacksize for task 107: unlimited
  | Current stacksize for task 108: unlimited
  | Current stacksize for task 109: unlimited
  | Current stacksize for task 110: unlimited
  | Current stacksize for task 111: unlimited
  | Current stacksize for task 112: unlimited
  | Current stacksize for task 113: unlimited
  | Current stacksize for task 114: unlimited
  | Current stacksize for task 115: unlimited
  | Current stacksize for task 116: unlimited
  | Current stacksize for task 117: unlimited
  | Current stacksize for task 118: unlimited
  | Current stacksize for task 119: unlimited
  | Current stacksize for task 120: unlimited
  | Current stacksize for task 121: unlimited
  | Current stacksize for task 122: unlimited
  | Current stacksize for task 123: unlimited
  | Current stacksize for task 124: unlimited
  | Current stacksize for task 125: unlimited
  | Current stacksize for task 126: unlimited
  | Current stacksize for task 127: unlimited
  | Current stacksize for task 128: unlimited
  | Current stacksize for task 129: unlimited
  | Current stacksize for task 130: unlimited
  | Current stacksize for task 131: unlimited
  | Current stacksize for task 132: unlimited
  | Current stacksize for task 133: unlimited
  | Current stacksize for task 134: unlimited
  | Current stacksize for task 135: unlimited
  | Current stacksize for task 136: unlimited
  | Current stacksize for task 137: unlimited
  | Current stacksize for task 138: unlimited
  | Current stacksize for task 139: unlimited
  | Current stacksize for task 140: unlimited
  | Current stacksize for task 141: unlimited
  | Current stacksize for task 142: unlimited
  | Current stacksize for task 143: unlimited
  | Current stacksize for task 144: unlimited
  | Current stacksize for task 145: unlimited
  | Current stacksize for task 146: unlimited
  | Current stacksize for task 147: unlimited
  | Current stacksize for task 148: unlimited
  | Current stacksize for task 149: unlimited
  | Current stacksize for task 150: unlimited
  | Current stacksize for task 151: unlimited
  | Current stacksize for task 152: unlimited
  | Current stacksize for task 153: unlimited
  | Current stacksize for task 154: unlimited
  | Current stacksize for task 155: unlimited
  | Current stacksize for task 156: unlimited
  | Current stacksize for task 157: unlimited
  | Current stacksize for task 158: unlimited
  | Current stacksize for task 159: unlimited
  | Current stacksize for task 160: unlimited
  | Current stacksize for task 161: unlimited
  | Current stacksize for task 162: unlimited
  | Current stacksize for task 163: unlimited
  | Current stacksize for task 164: unlimited
  | Current stacksize for task 165: unlimited
  | Current stacksize for task 166: unlimited
  | Current stacksize for task 167: unlimited
  | Current stacksize for task 168: unlimited
  | Current stacksize for task 169: unlimited
  | Current stacksize for task 170: unlimited
  | Current stacksize for task 171: unlimited
  | Current stacksize for task 172: unlimited
  | Current stacksize for task 173: unlimited
  | Current stacksize for task 174: unlimited
  | Current stacksize for task 175: unlimited
  | Current stacksize for task 176: unlimited
  | Current stacksize for task 177: unlimited
  | Current stacksize for task 178: unlimited
  | Current stacksize for task 179: unlimited
  | Current stacksize for task 180: unlimited
  | Current stacksize for task 181: unlimited
  | Current stacksize for task 182: unlimited
  | Current stacksize for task 183: unlimited
  | Current stacksize for task 184: unlimited
  | Current stacksize for task 185: unlimited
  | Current stacksize for task 186: unlimited
  | Current stacksize for task 187: unlimited
  | Current stacksize for task 188: unlimited
  | Current stacksize for task 189: unlimited
  | Current stacksize for task 190: unlimited
  | Current stacksize for task 191: unlimited
  | Current stacksize for task 192: unlimited
  | Current stacksize for task 193: unlimited
  | Current stacksize for task 194: unlimited
  | Current stacksize for task 195: unlimited
  | Current stacksize for task 196: unlimited
  | Current stacksize for task 197: unlimited
  | Current stacksize for task 198: unlimited
  | Current stacksize for task 199: unlimited
  | Current stacksize for task 200: unlimited
  | Current stacksize for task 201: unlimited
  | Current stacksize for task 202: unlimited
  | Current stacksize for task 203: unlimited
  | Current stacksize for task 204: unlimited
  | Current stacksize for task 205: unlimited
  | Current stacksize for task 206: unlimited
  | Current stacksize for task 207: unlimited
  | Current stacksize for task 208: unlimited
  | Current stacksize for task 209: unlimited
  | Current stacksize for task 210: unlimited
  | Current stacksize for task 211: unlimited
  | Current stacksize for task 212: unlimited
  | Current stacksize for task 213: unlimited
  | Current stacksize for task 214: unlimited
  | Current stacksize for task 215: unlimited
  | Current stacksize for task 216: unlimited
  | Current stacksize for task 217: unlimited
  | Current stacksize for task 218: unlimited
  | Current stacksize for task 219: unlimited
  | Current stacksize for task 220: unlimited
  | Current stacksize for task 221: unlimited
  | Current stacksize for task 222: unlimited
  | Current stacksize for task 223: unlimited
  | Current stacksize for task 224: unlimited
  | Current stacksize for task 225: unlimited
  | Current stacksize for task 226: unlimited
  | Current stacksize for task 227: unlimited
  | Current stacksize for task 228: unlimited
  | Current stacksize for task 229: unlimited
  | Current stacksize for task 230: unlimited
  | Current stacksize for task 231: unlimited
  | Current stacksize for task 232: unlimited
  | Current stacksize for task 233: unlimited
  | Current stacksize for task 234: unlimited
  | Current stacksize for task 235: unlimited
  | Current stacksize for task 236: unlimited
  | Current stacksize for task 237: unlimited
  | Current stacksize for task 238: unlimited
  | Current stacksize for task 239: unlimited
  | Current stacksize for task 240: unlimited
  | Current stacksize for task 241: unlimited
  | Current stacksize for task 242: unlimited
  | Current stacksize for task 243: unlimited
  | Current stacksize for task 244: unlimited
  | Current stacksize for task 245: unlimited
  | Current stacksize for task 246: unlimited
  | Current stacksize for task 247: unlimited
  | Current stacksize for task 248: unlimited
  | Current stacksize for task 249: unlimited
  | Current stacksize for task 250: unlimited
  | Current stacksize for task 251: unlimited
  | Current stacksize for task 252: unlimited
  | Current stacksize for task 253: unlimited
  | Current stacksize for task 254: unlimited
  | Current stacksize for task 255: unlimited

  Consistency checks for the contents of control.in are next.

  MPI_IN_PLACE appears to work with this MPI implementation.
  | Keeping use_mpi_in_place .true. (see manual).
  Target number of points in a grid batch is not set. Defaulting to  100
  Method for grid partitioning is not set. Defaulting to parallel hash+maxmin partitioning.
  Batch size limit is not set. Defaulting to    200
  By default, will store active basis functions for each batch.
  If in need of memory, prune_basis_once .false. can be used to disable this option.
  communication_type for Hartree potential was not specified.
  Defaulting to calc_hartree .
  Defaulting to Pulay charge density mixer.
  Pulay mixer: Number of relevant iterations not set.
  Defaulting to    8 iterations.
  Pulay mixer: Number of initial linear mixing iterations not set.
  Defaulting to    0 iterations.
  Work space size for distributed Hartree potential not set.
  Defaulting to   0.200000E+03 MB.
  Mixing parameter for charge density mixing has not been set.
  Using default: charge_mix_param =     0.0500.
  The mixing parameter will be adjusted in iteration number     2 of the first full s.c.f. cycle only.
  Algorithm-dependent basis array size parameters:
  | n_max_pulay                         :        8
  Maximum number of self-consistency iterations not provided.
  Presetting  1000 iterations.
  Presetting      1001 iterations before the initial mixing cycle
  is restarted anyway using the sc_init_iter criterion / keyword.
  Presetting a factor      1.000 between actual scf density residual
  and density convergence criterion sc_accuracy_rho below which sc_init_iter
  takes no effect.
  No maximum number of relaxation steps, defaulting to     1000
  Default initial Hessian is Lindh matrix (thres = 15.00) plus  0.200000E+01 eV/A^2 times unity.
  No maximum energy tolerance for TRM/BFGS moves, defaulting to   0.150000E-02
  Maximum energy tolerance by which TRM/BFGS trajectory may increase over multiple steps:   0.300000E-02
  No harmonic length scale. Defaulting to   0.250000E-01 A.
  No trust radius initializer. Defaulting to   0.200000E+00 A.
  Unit cell relaxation: Unit cell will be relaxed fully.
  Unit cell relaxation: Analytical stress will be used.
  Analytical stress will be computed.
  Analytical stress calculation: Only the upper triangle is calculated.
                                 Final output is symmetrized.
  Analytical stress calculation: scf convergence accuracy of stress not set.
                                 Analytical stress self-consistency will not be checked explicitly.
                                 Be sure to set other criteria like sc_accuracy_rho tight enough.
  Forces evaluation will include force correction term due to incomplete self-consistency (default).
  Handling of forces: Unphysical translation and rotation will be removed from forces.
  No accuracy limit for integral partition fn. given. Defaulting to  0.1000E-14.
  No threshold value for u(r) in integrations given. Defaulting to  0.1000E-05.
  No occupation type (smearing scheme) given. Defaulting to Gaussian broadening, width =  0.1000E-01 eV.
  The width will be adjusted in iteration number     2 of the first full s.c.f. cycle only.
  S.C.F. convergence parameters will be adjusted in iteration number     2 of the first full s.c.f. cycle only.
  No accuracy for occupation numbers given. Defaulting to  0.1000E-12.
  No threshold value for occupation numbers given. Defaulting to  0.0000E+00.
  No accuracy for fermi level given. Defaulting to  0.1000E-19.
  Maximum # of iterations to find E_F not set. Defaulting to  200.
  Preferred method for the eigenvalue solver ('KS_method') not specified in 'control.in'.
  Defaulting to serial version, LAPACK (via ELSI), since more k-points than CPUs available.
  Will not use alltoall communication since running on < 1024 CPUs.
  Threshold for basis singularities not set.
  Default threshold for basis singularities:  0.1000E-04
  partition_type (choice of integration weights) for integrals was not specified.
  | Using a version of the partition function of Stratmann and coworkers ('stratmann_sparse').
  | At each grid point, the set of atoms used to build the partition table is smoothly restricted to
  | only those atoms whose free-atom density would be non-zero at that grid point.
  Partitioning for Hartree potential was not defined. Using partition_type for integrals.
  | Adjusted default value of keyword multip_moments_threshold to:       0.10000000E-11
  | This value may affect high angular momentum components of the Hartree potential in periodic systems.
  Angular momentum expansion for Kerker preconditioner not set explicitly.
  | Using default value of   0
  No explicit requirement for turning off preconditioner.
  | By default, it will be turned off when the charge convergence reaches
  | sc_accuracy_rho  =   0.100000E-06
  No special mixing parameter while Kerker preconditioner is on.
  Using default: charge_mix_param =     0.0500.
  No q(lm)/r^(l+1) cutoff set for long-range Hartree potential.
  | Using default value of  0.100000E-09 .
  | Verify using the multipole_threshold keyword.
  Defaulting to new monopole extrapolation.
  Density update method: automatic selection selected.
  Using density matrix based charge density update.
  Using density matrix based charge density update.
  Using packed matrix style: index .
  Geometry relaxation: A file "geometry.in.next_step" is written out by default after each step.
  | This file contains the geometry of the current relaxation step as well as
  | the current Hessian matrix needed to restart the relaxation algorithm.
  | If you do not want part or all of this information, use the keywords
  | "write_restart_geometry" or "hessian_to_restart_geometry" to switch the output off.
  Defaulting to use time-reversal symmetry for k-point grid.
  Charge integration errors on the 3D integration grid will be compensated
  by explicit normalization and distribution of residual charges.
  Use the "compensate_multipole_errors" flag to change this behaviour.
  Set 'collect_eigenvectors' to be '.true.' for all serial calculations. This is mandatory.
  Set 'collect_eigenvectors' to be '.true.' for KS_method lapack_fast and serial.

  Consistency checks for the contents of geometry.in are next.


  Range separation radius for Ewald summation (hartree_convergence_parameter):      4.50171111 bohr.
  Number of empty states per atom not set in control.in - providing a guess from actual geometry.
  | Total number of empty states used during s.c.f. cycle:       40
  If you use a very high smearing, use empty_states (per atom!) in control.in to increase this value.

  Structure-dependent array size parameters: 
  | Maximum number of distinct radial functions  :       44
  | Maximum number of basis functions            :      474
  | Number of Kohn-Sham states (occupied + empty):      200
------------------------------------------------------------

------------------------------------------------------------
          Preparing all fixed parts of the calculation.
------------------------------------------------------------
  Determining machine precision:
     2.2250738585072014E-308
  Setting up grids for atomic and cluster calculations.

  Creating wave function, potential, and density for free atoms.
  Runtime choices for atomic solver:
  | atomic solver xc        : PBE
  | compute density gradient: 1
  | compute kinetic density : F

  Species: Ba

  List of occupied orbitals and eigenvalues:
    n    l              occ      energy [Ha]    energy [eV]
    1    0           2.0000     -1428.759176    -38878.5153
    2    0           2.0000      -218.156321     -5936.3355
    3    0           2.0000       -45.759571     -1245.1813
    4    0           2.0000        -8.961354      -243.8508
    5    0           2.0000        -1.235311       -33.6145
    6    0           2.0000        -0.117372        -3.1939
    2    1           6.0000      -195.503522     -5319.9215
    3    1           6.0000       -38.566500     -1049.4479
    4    1           6.0000        -6.648037      -180.9023
    5    1           6.0000        -0.686503       -18.6807
    3    2          10.0000       -28.146810      -765.9137
    4    2          10.0000        -3.294406       -89.6453


  Species: Zr

  List of occupied orbitals and eigenvalues:
    n    l              occ      energy [Ha]    energy [eV]
    1    0           2.0000      -668.722933    -18196.8768
    2    0           2.0000       -91.076987     -2478.3309
    3    0           2.0000       -14.873383      -404.7254
    4    0           2.0000        -1.994212       -54.2653
    5    0           2.0000        -0.156460        -4.2575
    2    1           6.0000       -81.194469     -2209.4139
    3    1           6.0000       -11.667913      -317.5001
    4    1           6.0000        -1.184217       -32.2242
    3    2          10.0000        -6.414313      -174.5423
    4    2           2.0000        -0.125045        -3.4027


  Species: S

  List of occupied orbitals and eigenvalues:
    n    l              occ      energy [Ha]    energy [eV]
    1    0           2.0000       -88.680731     -2413.1255
    2    0           2.0000        -7.781719      -211.7513
    3    0           2.0000        -0.633662       -17.2428
    2    1           6.0000        -5.751976      -156.5192
    3    1           4.0000        -0.257086        -6.9957


  Adding cutoff potential to free-atom effective potential.
  Creating fixed part of basis set: Ionic, confined, hydrogenic.

  Ba                   ion:

  List of free ionic orbitals and eigenvalues:
    n    l      energy [Ha]    energy [eV]
    1    0     -1428.980456    -38884.5366
    2    0      -218.370478     -5942.1630
    3    0       -45.972614     -1250.9785
    4    0        -9.173714      -249.6295
    5    0        -1.445296       -39.3285
    6    0        -0.278663        -7.5828
    2    1      -195.717553     -5325.7456
    3    1       -38.779502     -1055.2439
    4    1        -6.860306      -186.6784
    5    1        -0.894905       -24.3516
    3    2       -28.359770      -771.7086
    4    2        -3.506466       -95.4158


  List of ionic basis orbitals and eigenvalues:
    n    l      energy [Ha]    energy [eV]    outer radius [A]
    5    2        -0.260030        -7.0758       7.007670
    4    3        -0.142743        -3.8842       7.093864


  Ba                   hydrogenic:

  List of hydrogenic basis orbitals: 
    n    l      effective z      eigenvalue [eV]  inner max. [A]     outer max. [A]     outer radius [A]   
    3    1         2.700000       -11.0183           0.585865           2.360755           7.358861
    4    0         3.300000        -9.1387           0.118110           3.896996           7.449375
    4    3         5.800000       -28.6057           1.465516           1.465516           5.905331
    5    4         7.400000       -29.8017           1.782126           1.782126           6.354768


  Zr                   ion:

  List of free ionic orbitals and eigenvalues:
    n    l      energy [Ha]    energy [eV]
    1    0      -669.421026    -18215.8729
    2    0       -91.769634     -2497.1788
    3    0       -15.560469      -423.4219
    4    0        -2.663352       -72.4735
    5    0        -0.640863       -17.4388
    2    1       -81.886574     -2228.2470
    3    1       -12.354892      -336.1937
    4    1        -1.844122       -50.1811
    3    2        -7.101714      -193.2475
    4    2        -0.726930       -19.7808


  List of ionic basis orbitals and eigenvalues:
    n    l      energy [Ha]    energy [eV]    outer radius [A]
    4    2        -0.726920       -19.7805       5.008334
    5    1        -0.469561       -12.7774       5.455794
    5    0        -0.640774       -17.4363       5.389503


  Zr                   hydrogenic:

  List of hydrogenic basis orbitals: 
    n    l      effective z      eigenvalue [eV]  inner max. [A]     outer max. [A]     outer radius [A]   
    4    3         7.200000       -44.0822           1.169212           1.169212           5.008334
    5    4        10.400000       -58.8635           1.273673           1.273673           4.887365


  S                    ion:

  List of free ionic orbitals and eigenvalues:
    n    l      energy [Ha]    energy [eV]
    1    0       -89.703778     -2440.9640
    2    0        -8.775428      -238.7916
    3    0        -1.470343       -40.0101
    2    1        -6.747660      -183.6132
    3    1        -1.048627       -28.5346


  List of ionic basis orbitals and eigenvalues:
    n    l      energy [Ha]    energy [eV]    outer radius [A]
    3    2        -0.495605       -13.4861       5.386362
    3    0        -1.470336       -40.0099       3.967934


  S                    hydrogenic:

  List of hydrogenic basis orbitals: 
    n    l      effective z      eigenvalue [eV]  inner max. [A]     outer max. [A]     outer radius [A]   
    2    1         1.800000       -11.0118           1.168531           1.168531           5.452614
    4    3         7.000000       -41.6672           1.212182           1.212182           5.066981
    4    2         6.200000       -32.6848           0.582121           1.814567           5.386362
    5    4        10.800000       -63.4785           1.227092           1.227092           4.766538

  Creating atomic-like basis functions for current effective potential.

  Species Ba                  :

  List of atomic basis orbitals and eigenvalues:
    n    l      energy [Ha]    energy [eV]    outer radius [A]
    1    0     -1428.759176    -38878.5153       0.181180
    2    0      -218.156321     -5936.3355       0.481781
    3    0       -45.759571     -1245.1813       1.053516
    4    0        -8.961354      -243.8508       2.303735
    5    0        -1.235311       -33.6145       5.905331
    6    0        -0.117372        -3.1939       7.358861
    2    1      -195.503522     -5319.9215       0.493705
    3    1       -38.566500     -1049.4479       1.119920
    4    1        -6.648037      -180.9023       2.603304
    5    1        -0.686503       -18.6807       6.838410
    3    2       -28.146810      -765.9137       1.250174
    4    2        -3.294406       -89.6453       3.490975


  Species Zr                  :

  List of atomic basis orbitals and eigenvalues:
    n    l      energy [Ha]    energy [eV]    outer radius [A]
    1    0      -668.722933    -18196.8768       0.259930
    2    0       -91.076987     -2478.3309       0.725827
    3    0       -14.873383      -404.7254       1.771771
    4    0        -1.994212       -54.2653       4.541709
    5    0        -0.156460        -4.2575       5.455794
    2    1       -81.194469     -2209.4139       0.743792
    3    1       -11.667913      -317.5001       1.930067
    4    1        -1.184217       -32.2242       5.008334
    3    2        -6.414313      -174.5423       2.434714
    4    2        -0.125045        -3.4027       5.389503


  Species S                   :

  List of atomic basis orbitals and eigenvalues:
    n    l      energy [Ha]    energy [eV]    outer radius [A]
    1    0       -88.680731     -2413.1255       0.682391
    2    0        -7.781719      -211.7513       2.289014
    3    0        -0.633662       -17.2428       5.256262
    2    1        -5.751976      -156.5192       2.555240
    3    1        -0.257086        -6.9957       5.386362

  Assembling full basis from fixed parts.
  | Species Ba :   atomic orbital   1 s accepted.
  | Species Ba :   atomic orbital   2 s accepted.
  | Species Ba :   atomic orbital   3 s accepted.
  | Species Ba :   atomic orbital   4 s accepted.
  | Species Ba :   atomic orbital   5 s accepted.
  | Species Ba :   atomic orbital   6 s accepted.
  | Species Ba :    hydro orbital   4 s accepted.
  | Species Ba :   atomic orbital   2 p accepted.
  | Species Ba :   atomic orbital   3 p accepted.
  | Species Ba :   atomic orbital   4 p accepted.
  | Species Ba :   atomic orbital   5 p accepted.
  | Species Ba :    hydro orbital   3 p accepted.
  | Species Ba :   atomic orbital   3 d accepted.
  | Species Ba :   atomic orbital   4 d accepted.
  | Species Ba :    ionic orbital   5 d accepted.
  | Species Ba :    hydro orbital   4 f accepted.
  | Species Ba :    ionic orbital   4 f accepted.
  | Species Ba :    hydro orbital   5 g accepted.
  | Species Zr :   atomic orbital   1 s accepted.
  | Species Zr :   atomic orbital   2 s accepted.
  | Species Zr :   atomic orbital   3 s accepted.
  | Species Zr :   atomic orbital   4 s accepted.
  | Species Zr :    ionic orbital   5 s accepted.
  | Species Zr :   atomic orbital   5 s accepted.
  | Species Zr :   atomic orbital   2 p accepted.
  | Species Zr :   atomic orbital   3 p accepted.
  | Species Zr :   atomic orbital   4 p accepted.
  | Species Zr :    ionic orbital   5 p accepted.
  | Species Zr :   atomic orbital   3 d accepted.
  | Species Zr :    ionic orbital   4 d accepted.
  | Species Zr :   atomic orbital   4 d accepted.
  | Species Zr :    hydro orbital   4 f accepted.
  | Species Zr :    hydro orbital   5 g accepted.
  | Species S :   atomic orbital   1 s accepted.
  | Species S :   atomic orbital   2 s accepted.
  | Species S :    ionic orbital   3 s accepted.
  | Species S :   atomic orbital   3 s accepted.
  | Species S :   atomic orbital   2 p accepted.
  | Species S :   atomic orbital   3 p accepted.
  | Species S :    hydro orbital   2 p accepted.
  | Species S :    ionic orbital   3 d accepted.
  | Species S :    hydro orbital   4 d accepted.
  | Species S :    hydro orbital   4 f accepted.
  | Species S :    hydro orbital   5 g accepted.

  Basis size parameters after reduction:
  | Total number of radial functions:       44
  | Total number of basis functions :      474

  Per-task memory consumption for arrays in subroutine allocate_ext:
  |          16.459516MB.
  Testing on-site integration grid accuracy.
  |  Species  Function  <phi|h_atom|phi> (log., in eV)  <phi|h_atom|phi> (rad., in eV)
           1        1             -38878.5152842456             -38878.5102682711
           1        2              -5936.3355416432              -5936.3354463181
           1        3              -1245.1812725370              -1245.1812651319
           1        4               -243.8508498583               -243.8508475766
           1        5                -33.6145129113                -33.6145123744
           1        6                 -3.1953474132                 -3.1940995993
           1        7                  1.7217240859                  1.7400532086
           1        8              -5319.9215180603              -5319.9215128547
           1        9              -1049.4478540965              -1049.4478516474
           1       10               -180.9022912879               -180.9022896989
           1       11                -18.6806852844                -18.6806849603
           1       12                 -0.6584997172                 -0.6579606663
           1       13               -765.9136710812               -765.9136703559
[...]
    180       0.00000          -0.050263           -1.36772
    181       0.00000          -0.039575           -1.07689
    182       0.00000          -0.027101           -0.73745
    183       0.00000          -0.026200           -0.71295
    184       0.00000          -0.026200           -0.71295
    185       0.00000          -0.026083           -0.70976
    186       0.00000          -0.024094           -0.65564
    187       0.00000          -0.010201           -0.27757
    188       0.00000          -0.010201           -0.27757
    189       0.00000           0.006722            0.18290
    190       0.00000           0.006722            0.18290
    191       0.00000           0.014817            0.40318
    192       0.00000           0.021156            0.57567
    193       0.00000           0.021961            0.59760
    194       0.00000           0.027817            0.75695
    195       0.00000           0.027817            0.75695
    196       0.00000           0.029488            0.80241
    197       0.00000           0.030884            0.84039
    198       0.00000           0.030884            0.84039
    199       0.00000           0.036849            1.00271
    200       0.00000           0.037906            1.03147

  What follows are estimated values for band gap, HOMO, LUMO, etc.
  | They are estimated on a discrete k-point grid and not necessarily exact.
  | For converged numbers, create a DOS and/or band structure plot on a denser k-grid.

  Highest occupied state (VBM) at     -7.97664147 eV (relative to internal zero)
  | Occupation number:      2.00000000
  | K-point:     179 at    0.500000    0.000000    0.000000 (in units of recip. lattice)

  Lowest unoccupied state (CBM) at    -6.53888271 eV (relative to internal zero)
  | Occupation number:      0.00000000
  | K-point:     123 at    0.250000    0.750000    0.750000 (in units of recip. lattice)

  ESTIMATED overall HOMO-LUMO gap:      1.43775876 eV between HOMO at k-point 179 and LUMO at k-point 123
  | This appears to be an indirect band gap.
  | Smallest direct gap :      1.43917072 eV for k_point 120 at    0.250000    0.750000    0.250000 (in units of recip. lattice)
  The gap value is above 0.2 eV. Unless you are using a very sparse k-point grid,
  this system is most likely an insulator or a semiconductor.

  | Chemical Potential                          :    -7.04448948 eV
  | Note that, for insulating systems, the printed 'chemical potential' value is not uniquely defined.
  | It can be anywhere in the energy gap, as long as it correctly separates occupied and unoccupied states.
  | In systems with a gap, the physically relevant chemical potential is the VBM or HOMO.

  Self-consistency cycle converged.


------------------------------------------------------------
  End self-consistency iteration #    26       :  max(cpu_time)    wall_clock(cpu1)
  | Time for this iteration                     :       23.053 s          23.039 s
  | Charge density & force component update     :       21.496 s          21.496 s
  | Density mixing                              :        0.017 s           0.002 s
  | Hartree multipole update                    :        0.003 s           0.003 s
  | Hartree multipole summation                 :        0.451 s           0.451 s
  | Hartree pot. SCF incomplete forces          :        0.289 s           0.289 s
  | Integration                                 :        0.544 s           0.544 s
  | Solution of K.-S. eqns.                     :        0.249 s           0.248 s
  | Total energy evaluation                     :        0.001 s           0.002 s

  Partial memory accounting:
  | Current value for overall tracked memory usage:
  |   Minimum:       33.624 MB (on task   0)
  |   Maximum:       36.519 MB (on task   1)
  |   Average:       33.669 MB
  | Peak value for overall tracked memory usage:
  |   Minimum:       84.939 MB (on task   9 after allocating d_wave)
  |   Maximum:       92.471 MB (on task  53 after allocating d_wave)
  |   Average:       87.349 MB
  | Largest tracked array allocation so far:
  |   Minimum:       18.401 MB (density_matrix_con on task 202)
  |   Maximum:       22.101 MB (density_matrix_con on task  53)
  |   Average:       19.611 MB
  Note:  These values currently only include a subset of arrays which are explicitly tracked.
  The "true" memory usage will be greater.
------------------------------------------------------------

  Energy and forces in a compact form:
  | Total energy uncorrected      :         -0.965429775859334E+06 eV
  | Total energy corrected        :         -0.965429775859334E+06 eV  <-- do not rely on this value for anything but (periodic) metals
  | Electronic free energy        :         -0.965429775859334E+06 eV
  Total atomic forces (unitary forces cleaned) [eV/Ang]:
  |    1          0.831364527624018E-05          0.344052782697861E-05          0.124043555467785E-02
  |    2          0.340577947591992E-04          0.126962692997996E-04          0.126091564512988E-02
  |    3         -0.192030633871217E-04         -0.681352227772865E-05         -0.585349583605959E-04
  |    4          0.602836113051978E-05          0.961822078423635E-06         -0.837944600174071E-04
  |    5         -0.484196343711939E-05         -0.172945611533483E-05         -0.202888017784625E-02
  |    6         -0.478768474738671E-05         -0.172254681161607E-05         -0.206299308262097E-02
  |    7         -0.490846572876152E-05          0.551119653435990E-03          0.445424980012309E-03
  |    8         -0.485180754271452E-05         -0.554518885942583E-03          0.445554097470976E-03
  |    9         -0.539911313278685E-03         -0.178803991925172E-05          0.420880995041795E-03
  |   10          0.530104496955830E-03         -0.164582157467782E-05          0.420991406512406E-03

  ------------------------------------ 
  Start decomposition of the XC Energy 
  ------------------------------------ 
  X and C from original XC functional choice 
  Hartree-Fock Energy :          0.000000000 Ha              0.000000000 eV
  X Energy            :       -915.986159178 Ha         -24925.251574073 eV
  C Energy            :        -18.205339410 Ha           -495.392490629 eV
  XC Energy w/o HF    :       -934.191498588 Ha         -25420.644064701 eV
  Total XC Energy     :       -934.191498588 Ha         -25420.644064701 eV
  ------------------------------------ 
  LDA X and C from self-consistent density 
  X Energy LDA        :       -888.999000036 Ha         -24190.893610095 eV
  C Energy LDA        :        -29.149713779 Ha           -793.204069695 eV
  ------------------------------------ 
  End decomposition of the XC Energy 
  ------------------------------------ 

------------------------------------------------------------
  Relaxation / MD: End force evaluation.       :  max(cpu_time)    wall_clock(cpu1)
  | Time for this force evaluation              :       95.592 s          95.929 s

------------------------------------------------------------
  Geometry optimization: Attempting to predict improved coordinates.

  +-------------------------------------------------------------------+
  | Generalized derivatives on lattice vectors [eV/A]                 |
  +-------------------------------------------------------------------+
  |lattice_vector      -0.00000001      -0.00023707       0.00035185  |
  |lattice_vector      -0.00023184      -0.00000003       0.00035188  |
  |lattice_vector      -0.00023187      -0.00023709       0.00000001  |
  +-------------------------------------------------------------------+
  | Forces on lattice vectors cleaned from atomic contributions [eV/A]|
  +-------------------------------------------------------------------+
  |lattice_vector       0.00000001       0.00023707      -0.00035185  |
  |lattice_vector       0.00023184       0.00000003      -0.00035188  |
  |lattice_vector       0.00023187       0.00023709      -0.00000001  |
  +-------------------------------------------------------------------+
  Symmetrized total atomic cartesian forces [eV/Ang]:
  |   1     0.0000000000E+00     0.0000000000E+00     0.1250675600E-02
  |   2     0.0000000000E+00     0.0000000000E+00     0.1250675600E-02
  |   3     0.0000000000E+00     0.0000000000E+00    -0.7116470919E-04
  |   4     0.0000000000E+00     0.0000000000E+00    -0.7116470919E-04
  |   5     0.0000000000E+00     0.0000000000E+00    -0.2045936630E-02
  |   6     0.0000000000E+00     0.0000000000E+00    -0.2045936630E-02
  |   7     0.0000000000E+00     0.5439135874E-03     0.4332128698E-03
  |   8     0.0000000000E+00    -0.5439135874E-03     0.4332128698E-03
  |   9    -0.5439135874E-03     0.0000000000E+00     0.4332128698E-03
  |  10     0.5439135874E-03     0.0000000000E+00     0.4332128698E-03
  +-------------------------------------------------------------------+
  | Symmetrized forces on lattice vectors cleaned from symmetrized
  | atomic contributions [eV/A]|
  +-------------------------------------------------------------------+
  |lattice_vector      -0.00015631       0.00015631      -0.00023457  |
  |lattice_vector       0.00015631      -0.00015631      -0.00023457  |
  |lattice_vector       0.00015631       0.00015631       0.00023457  |
  +-------------------------------------------------------------------+
  Net remaining forces (excluding translations, rotations) in present geometry:
  || Forces on atoms   || =   0.204594E-02 eV/A.
  || Forces on lattice || =   0.234573E-03 eV/A^3.
  Maximum force component is  0.204594E-02 eV/A.
  Present geometry is converged.

  Symmetry-reduced parameters:
  | atomic   1          0.803054053374622E+00
  | atomic   2          0.202952830934916E+00
  | atomic   3          0.100097533831549E+01
  | atomic   4          0.320848040506233E+00
  | atomic   5          0.640108888687487E+00
  | lattice  1          0.587408607908689E+01
  | lattice  2          0.159103650126043E+02
  Symmetry-reduced forces:
  | atomic   1          0.397974106136567E-01
  | atomic   2         -0.226451299842570E-02
  | atomic   3         -0.651031971593486E-01
  | atomic   4          0.127799809279671E-01
  | atomic   5          0.275702995441176E-01
  | lattice  1          0.468918655597333E-03
  | lattice  2         -0.351860016249629E-03
------------------------------------------------------------
  Final atomic structure:
                         x [A]             y [A]             z [A]
  lattice_vector        -2.93704304        2.93704304        7.95518251
  lattice_vector         2.93704304       -2.93704304        7.95518251
  lattice_vector         2.93704304        2.93704304       -7.95518251

            atom        -0.00000000       -0.00000000       -3.13348190  Ba
            atom         2.93704304       -0.00000000       -7.11107315  Ba
            atom         0.00000000        0.00000000        3.22905362  Ba
            atom         2.93704304       -0.00000000       -0.74853763  Ba
            atom         0.00000000        0.00000000        0.01551799  S
            atom         2.93704304       -0.00000000       -3.96207326  S
            atom        -0.00000000        1.88468901       -5.72599895  S
            atom        -2.93704304        1.05235403        2.22918356  S
            atom        -1.88468901        2.93704304       -1.74840769  S
            atom        -1.05235403        0.00000000        6.20677481  S

  Fractional coordinates:
                         L1                L2                L3
       atom_frac        -0.19694595       -0.19694595       -0.00000000  Ba
       atom_frac        -0.44694595        0.05305405        0.50000000  Ba
       atom_frac         0.20295283        0.20295283        0.00000000  Ba
       atom_frac        -0.04704717        0.45295283        0.50000000  Ba
       atom_frac         0.00097534        0.00097534       -0.00000000  S
       atom_frac        -0.24902466        0.25097534        0.50000000  S
       atom_frac        -0.03904307       -0.35989111        0.32084804  S
       atom_frac         0.31926085       -0.35989111       -0.32084804  S
       atom_frac         0.39010889       -0.43073915        0.17915196  S
       atom_frac         0.39010889        0.21095693       -0.17915196  S
------------------------------------------------------------

------------------------------------------------------------------------------
  Final output of selected total energy values:

  The following output summarizes some interesting total energy values
  at the end of a run (AFTER all relaxation, molecular dynamics, etc.).

  | Total energy of the DFT / Hartree-Fock s.c.f. calculation      :        -965429.775859334 eV
  | Final zero-broadening corrected energy (caution - metals only) :        -965429.775859334 eV
  | For reference only, the value of 1 Hartree used in FHI-aims is :             27.211384500 eV
  | For reference only, the overall average (free atom contribution
  | + realspace contribution) of the electrostatic potential after
  | s.c.f. convergence is                                          :            -16.791131639 eV

  Before relying on these values, please be sure to understand exactly which
  total energy value is referred to by a given number. Different objects may
  all carry the same name 'total energy'. Definitions:

  Total energy of the DFT / Hartree-Fock s.c.f. calculation:
  | Note that this energy does not include ANY quantities calculated after the
  | s.c.f. cycle, in particular not ANY RPA, MP2, etc. many-body perturbation terms.

  Final zero-broadening corrected energy:
  | For metallic systems only, a broadening of the occupation numbers at the Fermi
  | level can be extrapolated back to zero broadening by an electron-gas inspired
  | formula. For all systems that are not real metals, this value can be
  | meaningless and should be avoided.

------------------------------------------------------------------------------
  Methods described in the following list of references were used in this FHI-aims run.
  If you publish the results, please make sure to cite these reference if they apply.
  FHI-aims is an academic code, and for our developers (often, Ph.D. students
  and postdocs), scientific credit in the community is essential.
  Thank you for helping us!

  For any use of FHI-aims, please cite:

    Volker Blum, Ralf Gehrke, Felix Hanke, Paula Havu, Ville Havu,
    Xinguo Ren, Karsten Reuter, and Matthias Scheffler
    'Ab initio molecular simulations with numeric atom-centered orbitals'
    Computer Physics Communications 180, 2175-2196 (2009)
    http://doi.org/10.1016/j.cpc.2009.06.022


  For the analytical stress tensor used in your run, please cite:

    Franz Knuth, Christian Carbogno, Viktor Atalla, Volker Blum, Matthias Scheffler
    'All-electron formalism for total energy strain derivatives and
    stress tensor components for numeric atom-centered orbitals'
    Computer Physics Communications 190, 33-50 (2015).
    http://doi.org/10.1016/j.cpc.2015.01.003


  For the parametric geometry constraints, please cite:

    Maja-Olivia Lenz, Thomas A. R. Purcell, David Hicks,
    Stefano Curtarolo, Matthias Scheffler, Christian Carbogno
    'Parametrically constrained geometry relaxations for high-throughput materials science'
    npj Computational Materials 5, 123 (2019).
    http://doi.org/10.1038/s41524-019-0254-4


  The provided symmetry information was generated with SPGlib:

    Atsushi Togo, Yusuke Seto, Dimitar Pashov
    SPGlib 1.7.3 obtained from http://spglib.sourceforge.net
    Copyright (C) 2008 Atsushi Togo


  The ELSI infrastructure was used in your run to solve the Kohn-Sham electronic structure.
  Please check out http://elsi-interchange.org to learn more.
  If scalability is important for your project, please acknowledge ELSI by citing:

    V. W-z. Yu, F. Corsetti, A. Garcia, W. P. Huhn, M. Jacquelin, W. Jia,
    B. Lange, L. Lin, J. Lu, W. Mi, A. Seifitokaldani, A. Vazquez-Mayagoitia,
    C. Yang, H. Yang, and V. Blum
    'ELSI: A unified software interface for Kohn-Sham electronic structure solvers'
    Computer Physics Communications 222, 267-285 (2018).
    http://doi.org/10.1016/j.cpc.2017.09.007


  For the real-space grid partitioning and parallelization used in this calculation, please cite:

    Ville Havu, Volker Blum, Paula Havu, and Matthias Scheffler,
    'Efficient O(N) integration for all-electron electronic structure calculation'
    'using numerically tabulated basis functions'
    Journal of Computational Physics 228, 8367-8379 (2009).
    http://doi.org/10.1016/j.jcp.2009.08.008

  Of course, there are many other important community references, e.g., those cited in the
  above references. Our list is limited to references that describe implementations in the
  FHI-aims code. The reason is purely practical (length of this list) - please credit others as well.

   One or more s.c.f. cycles took more than 50 s.c.f. iterations.
   It might be worth adjusting your convergence settings. For example,
   metals need a larger broadening and a smaller "charge_mix_param" value than semiconductors.

------------------------------------------------------------
          Leaving FHI-aims.
          Date     :  20220923, Time     :  100435.493

          Computational steps:
          | Number of self-consistency cycles          :          361
          | Number of SCF (re)initializations          :           11
          | Number of relaxation steps                 :           10

          Detailed time accounting                     :  max(cpu_time)    wall_clock(cpu1)
          | Total time                                  :     1053.063 s        1054.303 s
          | Preparation time                            :        0.594 s           0.595 s
          | Boundary condition initalization            :        1.447 s           1.414 s
          | Grid partitioning                           :        1.954 s           1.953 s
          | Preloading free-atom quantities on grid     :        0.970 s           0.970 s
          | Free-atom superposition energy              :        0.097 s           0.093 s
          | Total time for integrations                 :      193.511 s         193.521 s
          | Total time for solution of K.-S. equations  :       91.110 s          90.920 s
          | Total time for EV reorthonormalization      :        0.606 s           0.371 s
          | Total time for density & force components   :      677.138 s         677.084 s
          | Total time for mixing & preconditioning     :       22.233 s          17.056 s
          | Total time for Hartree multipole update     :        1.096 s           1.106 s
          | Total time for Hartree multipole sum        :       51.907 s          51.913 s
          | Total time for total energy evaluation      :        0.518 s           0.507 s
          | Total time NSC force correction             :        8.108 s           8.110 s
          | Total time for scaled ZORA corrections      :        0.000 s           0.000 s

          Partial memory accounting:
          | Residual value for overall tracked memory usage across tasks:     0.000000 MB (should be 0.000000 MB)
          | Peak values for overall tracked memory usage:
          |   Minimum:       84.939 MB (on task   9 after allocating d_wave)
          |   Maximum:       92.471 MB (on task  53 after allocating d_wave)
          |   Average:       87.349 MB
          | Largest tracked array allocation:
          |   Minimum:       18.401 MB (density_matrix_con on task 202)
          |   Maximum:       22.101 MB (density_matrix_con on task  53)
          |   Average:       19.611 MB
          Note:  These values currently only include a subset of arrays which are explicitly tracked.
          The "true" memory usage will be greater.

          Have a nice day.
------------------------------------------------------------
