------------------------------------------------------------
          Invoking FHI-aims ...

          When using FHI-aims, please cite the following reference:

            Volker Blum, Ralf Gehrke, Felix Hanke, Paula Havu,
            Ville Havu, Xinguo Ren, Karsten Reuter, and Matthias Scheffler,
            'Ab Initio Molecular Simulations with Numeric Atom-Centered Orbitals',
            Computer Physics Communications 180, 2175-2196 (2009)

          In addition, many other developments in FHI-aims are likely important for
          your particular application. A partial list of references is given at the end of
          this file. Thank you for giving credit to the authors of these developments.

          For any questions about FHI-aims, please visit our slack channel at

            https://fhi-aims.slack.com

          and our main development and support site at

            https://aims-git.rz-berlin.mpg.de .

          The latter site, in particular, has a wiki to collect information, as well
          as an issue tracker to log discussions, suggest improvements, and report issues
          or bugs. https://aims-git.rz-berlin.mpg.de is also the main development site
          of the project and all new and updated code versions can be obtained there.
          Please send an email to aims-coordinators@fhi-berlin.mpg.de and we will add
          you to these sites. They are for you and everyone is welcome there.

------------------------------------------------------------



  Date     :  20220728, Time     :  121558.567
  Time zero on CPU 1             :   0.131749700000000E+01  s.
  Internal wall clock time zero  :           428242558.567  s.

  FHI-aims created a unique identifier for this run for later identification
  aims_uuid : 63B61865-4C4D-4D6B-A291-7803E37F8D9B

  Build configuration of the current instance of FHI-aims
  -------------------------------------------------------
  FHI-aims version      : 220609
  Commit number         : 932a0c519
  CMake host system     : Linux-4.12.14-197.78_9.1.64-cray_shasta_c
  CMake version         : 3.10.2
  Fortran compiler      : /opt/cray/pe/craype/2.7.6/bin/ftn (GNU) version 10.2.0
  Fortran compiler flags: -O2 -fallow-argument-mismatch -ffree-line-length-none
  C compiler            : /opt/cray/pe/craype/2.7.6/bin/cc (GNU) version 10.2.0
  C compiler flags      : -O2
  Using MPI
  Using ScaLAPACK
  Using LibXC
  Using i-PI
  Using RLSY
  Linking against:

  Using      512 parallel tasks.
  Task        0 on host nid006216 reporting.
  Task        1 on host nid006216 reporting.
  Task        2 on host nid006216 reporting.
  Task        3 on host nid006216 reporting.
  Task        4 on host nid006216 reporting.
  Task        5 on host nid006216 reporting.
  Task        6 on host nid006216 reporting.
  Task        7 on host nid006216 reporting.
  Task        8 on host nid006216 reporting.
  Task        9 on host nid006216 reporting.
  Task       10 on host nid006216 reporting.
  Task       11 on host nid006216 reporting.
  Task       12 on host nid006216 reporting.
  Task       13 on host nid006216 reporting.
  Task       14 on host nid006216 reporting.
  Task       15 on host nid006216 reporting.
  Task       16 on host nid006216 reporting.
  Task       17 on host nid006216 reporting.
  Task       18 on host nid006216 reporting.
  Task       19 on host nid006216 reporting.
  Task       20 on host nid006216 reporting.
  Task       21 on host nid006216 reporting.
  Task       22 on host nid006216 reporting.
  Task       23 on host nid006216 reporting.
  Task       24 on host nid006216 reporting.
  Task       25 on host nid006216 reporting.
  Task       26 on host nid006216 reporting.
  Task       27 on host nid006216 reporting.
  Task       28 on host nid006216 reporting.
  Task       29 on host nid006216 reporting.
  Task       30 on host nid006216 reporting.
  Task       31 on host nid006216 reporting.
  Task       32 on host nid006216 reporting.
  Task       33 on host nid006216 reporting.
  Task       34 on host nid006216 reporting.
  Task       35 on host nid006216 reporting.
  Task       36 on host nid006216 reporting.
  Task       37 on host nid006216 reporting.
  Task       38 on host nid006216 reporting.
  Task       39 on host nid006216 reporting.
  Task       40 on host nid006216 reporting.
  Task       41 on host nid006216 reporting.
  Task       42 on host nid006216 reporting.
  Task       43 on host nid006216 reporting.
  Task       44 on host nid006216 reporting.
  Task       45 on host nid006216 reporting.
  Task       46 on host nid006216 reporting.
  Task       47 on host nid006216 reporting.
  Task       48 on host nid006216 reporting.
  Task       49 on host nid006216 reporting.
  Task       50 on host nid006216 reporting.
  Task       51 on host nid006216 reporting.
  Task       52 on host nid006216 reporting.
  Task       53 on host nid006216 reporting.
  Task       54 on host nid006216 reporting.
  Task       55 on host nid006216 reporting.
  Task       56 on host nid006216 reporting.
  Task       57 on host nid006216 reporting.
  Task       58 on host nid006216 reporting.
  Task       59 on host nid006216 reporting.
  Task       60 on host nid006216 reporting.
  Task       61 on host nid006216 reporting.
  Task       62 on host nid006216 reporting.
  Task       63 on host nid006216 reporting.
  Task       64 on host nid006217 reporting.
  Task       65 on host nid006217 reporting.
  Task       66 on host nid006217 reporting.
  Task       67 on host nid006217 reporting.
  Task       68 on host nid006217 reporting.
  Task       69 on host nid006217 reporting.
  Task       70 on host nid006217 reporting.
  Task       71 on host nid006217 reporting.
  Task       72 on host nid006217 reporting.
  Task       73 on host nid006217 reporting.
  Task       74 on host nid006217 reporting.
  Task       75 on host nid006217 reporting.
  Task       76 on host nid006217 reporting.
  Task       77 on host nid006217 reporting.
  Task       78 on host nid006217 reporting.
  Task       79 on host nid006217 reporting.
  Task       80 on host nid006217 reporting.
  Task       81 on host nid006217 reporting.
  Task       82 on host nid006217 reporting.
  Task       83 on host nid006217 reporting.
  Task       84 on host nid006217 reporting.
  Task       85 on host nid006217 reporting.
  Task       86 on host nid006217 reporting.
  Task       87 on host nid006217 reporting.
  Task       88 on host nid006217 reporting.
  Task       89 on host nid006217 reporting.
  Task       90 on host nid006217 reporting.
  Task       91 on host nid006217 reporting.
  Task       92 on host nid006217 reporting.
  Task       93 on host nid006217 reporting.
  Task       94 on host nid006217 reporting.
  Task       95 on host nid006217 reporting.
  Task       96 on host nid006217 reporting.
  Task       97 on host nid006217 reporting.
  Task       98 on host nid006217 reporting.
  Task       99 on host nid006217 reporting.
  Task      100 on host nid006217 reporting.
  Task      101 on host nid006217 reporting.
  Task      102 on host nid006217 reporting.
  Task      103 on host nid006217 reporting.
  Task      104 on host nid006217 reporting.
  Task      105 on host nid006217 reporting.
  Task      106 on host nid006217 reporting.
  Task      107 on host nid006217 reporting.
  Task      108 on host nid006217 reporting.
  Task      109 on host nid006217 reporting.
  Task      110 on host nid006217 reporting.
  Task      111 on host nid006217 reporting.
  Task      112 on host nid006217 reporting.
  Task      113 on host nid006217 reporting.
  Task      114 on host nid006217 reporting.
  Task      115 on host nid006217 reporting.
  Task      116 on host nid006217 reporting.
  Task      117 on host nid006217 reporting.
  Task      118 on host nid006217 reporting.
  Task      119 on host nid006217 reporting.
  Task      120 on host nid006217 reporting.
  Task      121 on host nid006217 reporting.
  Task      122 on host nid006217 reporting.
  Task      123 on host nid006217 reporting.
  Task      124 on host nid006217 reporting.
  Task      125 on host nid006217 reporting.
  Task      126 on host nid006217 reporting.
  Task      127 on host nid006217 reporting.
  Task      128 on host nid006218 reporting.
  Task      129 on host nid006218 reporting.
  Task      130 on host nid006218 reporting.
  Task      131 on host nid006218 reporting.
  Task      132 on host nid006218 reporting.
  Task      133 on host nid006218 reporting.
  Task      134 on host nid006218 reporting.
  Task      135 on host nid006218 reporting.
  Task      136 on host nid006218 reporting.
  Task      137 on host nid006218 reporting.
  Task      138 on host nid006218 reporting.
  Task      139 on host nid006218 reporting.
  Task      140 on host nid006218 reporting.
  Task      141 on host nid006218 reporting.
  Task      142 on host nid006218 reporting.
  Task      143 on host nid006218 reporting.
  Task      144 on host nid006218 reporting.
  Task      145 on host nid006218 reporting.
  Task      146 on host nid006218 reporting.
  Task      147 on host nid006218 reporting.
  Task      148 on host nid006218 reporting.
  Task      149 on host nid006218 reporting.
  Task      150 on host nid006218 reporting.
  Task      151 on host nid006218 reporting.
  Task      152 on host nid006218 reporting.
  Task      153 on host nid006218 reporting.
  Task      154 on host nid006218 reporting.
  Task      155 on host nid006218 reporting.
  Task      156 on host nid006218 reporting.
  Task      157 on host nid006218 reporting.
  Task      158 on host nid006218 reporting.
  Task      159 on host nid006218 reporting.
  Task      160 on host nid006218 reporting.
  Task      161 on host nid006218 reporting.
  Task      162 on host nid006218 reporting.
  Task      163 on host nid006218 reporting.
  Task      164 on host nid006218 reporting.
  Task      165 on host nid006218 reporting.
  Task      166 on host nid006218 reporting.
  Task      167 on host nid006218 reporting.
  Task      168 on host nid006218 reporting.
  Task      169 on host nid006218 reporting.
  Task      170 on host nid006218 reporting.
  Task      171 on host nid006218 reporting.
  Task      172 on host nid006218 reporting.
  Task      173 on host nid006218 reporting.
  Task      174 on host nid006218 reporting.
  Task      175 on host nid006218 reporting.
  Task      176 on host nid006218 reporting.
  Task      177 on host nid006218 reporting.
  Task      178 on host nid006218 reporting.
  Task      179 on host nid006218 reporting.
  Task      180 on host nid006218 reporting.
  Task      181 on host nid006218 reporting.
  Task      182 on host nid006218 reporting.
  Task      183 on host nid006218 reporting.
  Task      184 on host nid006218 reporting.
  Task      185 on host nid006218 reporting.
  Task      186 on host nid006218 reporting.
  Task      187 on host nid006218 reporting.
  Task      188 on host nid006218 reporting.
  Task      189 on host nid006218 reporting.
  Task      190 on host nid006218 reporting.
  Task      191 on host nid006218 reporting.
  Task      192 on host nid006219 reporting.
  Task      193 on host nid006219 reporting.
  Task      194 on host nid006219 reporting.
  Task      195 on host nid006219 reporting.
  Task      196 on host nid006219 reporting.
  Task      197 on host nid006219 reporting.
  Task      198 on host nid006219 reporting.
  Task      199 on host nid006219 reporting.
  Task      200 on host nid006219 reporting.
  Task      201 on host nid006219 reporting.
  Task      202 on host nid006219 reporting.
  Task      203 on host nid006219 reporting.
  Task      204 on host nid006219 reporting.
  Task      205 on host nid006219 reporting.
  Task      206 on host nid006219 reporting.
  Task      207 on host nid006219 reporting.
  Task      208 on host nid006219 reporting.
  Task      209 on host nid006219 reporting.
  Task      210 on host nid006219 reporting.
  Task      211 on host nid006219 reporting.
  Task      212 on host nid006219 reporting.
  Task      213 on host nid006219 reporting.
  Task      214 on host nid006219 reporting.
  Task      215 on host nid006219 reporting.
  Task      216 on host nid006219 reporting.
  Task      217 on host nid006219 reporting.
  Task      218 on host nid006219 reporting.
  Task      219 on host nid006219 reporting.
  Task      220 on host nid006219 reporting.
  Task      221 on host nid006219 reporting.
  Task      222 on host nid006219 reporting.
  Task      223 on host nid006219 reporting.
  Task      224 on host nid006219 reporting.
  Task      225 on host nid006219 reporting.
  Task      226 on host nid006219 reporting.
  Task      227 on host nid006219 reporting.
  Task      228 on host nid006219 reporting.
  Task      229 on host nid006219 reporting.
  Task      230 on host nid006219 reporting.
  Task      231 on host nid006219 reporting.
  Task      232 on host nid006219 reporting.
  Task      233 on host nid006219 reporting.
  Task      234 on host nid006219 reporting.
  Task      235 on host nid006219 reporting.
  Task      236 on host nid006219 reporting.
  Task      237 on host nid006219 reporting.
  Task      238 on host nid006219 reporting.
  Task      239 on host nid006219 reporting.
  Task      240 on host nid006219 reporting.
  Task      241 on host nid006219 reporting.
  Task      242 on host nid006219 reporting.
  Task      243 on host nid006219 reporting.
  Task      244 on host nid006219 reporting.
  Task      245 on host nid006219 reporting.
  Task      246 on host nid006219 reporting.
  Task      247 on host nid006219 reporting.
  Task      248 on host nid006219 reporting.
  Task      249 on host nid006219 reporting.
  Task      250 on host nid006219 reporting.
  Task      251 on host nid006219 reporting.
  Task      252 on host nid006219 reporting.
  Task      253 on host nid006219 reporting.
  Task      254 on host nid006219 reporting.
  Task      255 on host nid006219 reporting.
  Task      256 on host nid006240 reporting.
  Task      257 on host nid006240 reporting.
  Task      258 on host nid006240 reporting.
  Task      259 on host nid006240 reporting.
  Task      260 on host nid006240 reporting.
  Task      261 on host nid006240 reporting.
  Task      262 on host nid006240 reporting.
  Task      263 on host nid006240 reporting.
  Task      264 on host nid006240 reporting.
  Task      265 on host nid006240 reporting.
  Task      266 on host nid006240 reporting.
  Task      267 on host nid006240 reporting.
  Task      268 on host nid006240 reporting.
  Task      269 on host nid006240 reporting.
  Task      270 on host nid006240 reporting.
  Task      271 on host nid006240 reporting.
  Task      272 on host nid006240 reporting.
  Task      273 on host nid006240 reporting.
  Task      274 on host nid006240 reporting.
  Task      275 on host nid006240 reporting.
  Task      276 on host nid006240 reporting.
  Task      277 on host nid006240 reporting.
  Task      278 on host nid006240 reporting.
  Task      279 on host nid006240 reporting.
  Task      280 on host nid006240 reporting.
  Task      281 on host nid006240 reporting.
  Task      282 on host nid006240 reporting.
  Task      283 on host nid006240 reporting.
  Task      284 on host nid006240 reporting.
  Task      285 on host nid006240 reporting.
  Task      286 on host nid006240 reporting.
  Task      287 on host nid006240 reporting.
  Task      288 on host nid006240 reporting.
  Task      289 on host nid006240 reporting.
  Task      290 on host nid006240 reporting.
  Task      291 on host nid006240 reporting.
  Task      292 on host nid006240 reporting.
  Task      293 on host nid006240 reporting.
  Task      294 on host nid006240 reporting.
  Task      295 on host nid006240 reporting.
  Task      296 on host nid006240 reporting.
  Task      297 on host nid006240 reporting.
  Task      298 on host nid006240 reporting.
  Task      299 on host nid006240 reporting.
  Task      300 on host nid006240 reporting.
  Task      301 on host nid006240 reporting.
  Task      302 on host nid006240 reporting.
  Task      303 on host nid006240 reporting.
  Task      304 on host nid006240 reporting.
  Task      305 on host nid006240 reporting.
  Task      306 on host nid006240 reporting.
  Task      307 on host nid006240 reporting.
  Task      308 on host nid006240 reporting.
  Task      309 on host nid006240 reporting.
  Task      310 on host nid006240 reporting.
  Task      311 on host nid006240 reporting.
  Task      312 on host nid006240 reporting.
  Task      313 on host nid006240 reporting.
  Task      314 on host nid006240 reporting.
  Task      315 on host nid006240 reporting.
  Task      316 on host nid006240 reporting.
  Task      317 on host nid006240 reporting.
  Task      318 on host nid006240 reporting.
  Task      319 on host nid006240 reporting.
  Task      320 on host nid006241 reporting.
  Task      321 on host nid006241 reporting.
  Task      322 on host nid006241 reporting.
  Task      323 on host nid006241 reporting.
  Task      324 on host nid006241 reporting.
  Task      325 on host nid006241 reporting.
  Task      326 on host nid006241 reporting.
  Task      327 on host nid006241 reporting.
  Task      328 on host nid006241 reporting.
  Task      329 on host nid006241 reporting.
  Task      330 on host nid006241 reporting.
  Task      331 on host nid006241 reporting.
  Task      332 on host nid006241 reporting.
  Task      333 on host nid006241 reporting.
  Task      334 on host nid006241 reporting.
  Task      335 on host nid006241 reporting.
  Task      336 on host nid006241 reporting.
  Task      337 on host nid006241 reporting.
  Task      338 on host nid006241 reporting.
  Task      339 on host nid006241 reporting.
  Task      340 on host nid006241 reporting.
  Task      341 on host nid006241 reporting.
  Task      342 on host nid006241 reporting.
  Task      343 on host nid006241 reporting.
  Task      344 on host nid006241 reporting.
  Task      345 on host nid006241 reporting.
  Task      346 on host nid006241 reporting.
  Task      347 on host nid006241 reporting.
  Task      348 on host nid006241 reporting.
  Task      349 on host nid006241 reporting.
  Task      350 on host nid006241 reporting.
  Task      351 on host nid006241 reporting.
  Task      352 on host nid006241 reporting.
  Task      353 on host nid006241 reporting.
  Task      354 on host nid006241 reporting.
  Task      355 on host nid006241 reporting.
  Task      356 on host nid006241 reporting.
  Task      357 on host nid006241 reporting.
  Task      358 on host nid006241 reporting.
  Task      359 on host nid006241 reporting.
  Task      360 on host nid006241 reporting.
  Task      361 on host nid006241 reporting.
  Task      362 on host nid006241 reporting.
  Task      363 on host nid006241 reporting.
  Task      364 on host nid006241 reporting.
  Task      365 on host nid006241 reporting.
  Task      366 on host nid006241 reporting.
  Task      367 on host nid006241 reporting.
  Task      368 on host nid006241 reporting.
  Task      369 on host nid006241 reporting.
  Task      370 on host nid006241 reporting.
  Task      371 on host nid006241 reporting.
  Task      372 on host nid006241 reporting.
  Task      373 on host nid006241 reporting.
  Task      374 on host nid006241 reporting.
  Task      375 on host nid006241 reporting.
  Task      376 on host nid006241 reporting.
  Task      377 on host nid006241 reporting.
  Task      378 on host nid006241 reporting.
  Task      379 on host nid006241 reporting.
  Task      380 on host nid006241 reporting.
  Task      381 on host nid006241 reporting.
  Task      382 on host nid006241 reporting.
  Task      383 on host nid006241 reporting.
  Task      384 on host nid006242 reporting.
  Task      385 on host nid006242 reporting.
  Task      386 on host nid006242 reporting.
  Task      387 on host nid006242 reporting.
  Task      388 on host nid006242 reporting.
  Task      389 on host nid006242 reporting.
  Task      390 on host nid006242 reporting.
  Task      391 on host nid006242 reporting.
  Task      392 on host nid006242 reporting.
  Task      393 on host nid006242 reporting.
  Task      394 on host nid006242 reporting.
  Task      395 on host nid006242 reporting.
  Task      396 on host nid006242 reporting.
  Task      397 on host nid006242 reporting.
  Task      398 on host nid006242 reporting.
  Task      399 on host nid006242 reporting.
  Task      400 on host nid006242 reporting.
  Task      401 on host nid006242 reporting.
  Task      402 on host nid006242 reporting.
  Task      403 on host nid006242 reporting.
  Task      404 on host nid006242 reporting.
  Task      405 on host nid006242 reporting.
  Task      406 on host nid006242 reporting.
  Task      407 on host nid006242 reporting.
  Task      408 on host nid006242 reporting.
  Task      409 on host nid006242 reporting.
  Task      410 on host nid006242 reporting.
  Task      411 on host nid006242 reporting.
  Task      412 on host nid006242 reporting.
  Task      413 on host nid006242 reporting.
  Task      414 on host nid006242 reporting.
  Task      415 on host nid006242 reporting.
  Task      416 on host nid006242 reporting.
  Task      417 on host nid006242 reporting.
  Task      418 on host nid006242 reporting.
  Task      419 on host nid006242 reporting.
  Task      420 on host nid006242 reporting.
  Task      421 on host nid006242 reporting.
  Task      422 on host nid006242 reporting.
  Task      423 on host nid006242 reporting.
  Task      424 on host nid006242 reporting.
  Task      425 on host nid006242 reporting.
  Task      426 on host nid006242 reporting.
  Task      427 on host nid006242 reporting.
  Task      428 on host nid006242 reporting.
  Task      429 on host nid006242 reporting.
  Task      430 on host nid006242 reporting.
  Task      431 on host nid006242 reporting.
  Task      432 on host nid006242 reporting.
  Task      433 on host nid006242 reporting.
  Task      434 on host nid006242 reporting.
  Task      435 on host nid006242 reporting.
  Task      436 on host nid006242 reporting.
  Task      437 on host nid006242 reporting.
  Task      438 on host nid006242 reporting.
  Task      439 on host nid006242 reporting.
  Task      440 on host nid006242 reporting.
  Task      441 on host nid006242 reporting.
  Task      442 on host nid006242 reporting.
  Task      443 on host nid006242 reporting.
  Task      444 on host nid006242 reporting.
  Task      445 on host nid006242 reporting.
  Task      446 on host nid006242 reporting.
  Task      447 on host nid006242 reporting.
  Task      448 on host nid006243 reporting.
  Task      449 on host nid006243 reporting.
  Task      450 on host nid006243 reporting.
  Task      451 on host nid006243 reporting.
  Task      452 on host nid006243 reporting.
  Task      453 on host nid006243 reporting.
  Task      454 on host nid006243 reporting.
  Task      455 on host nid006243 reporting.
  Task      456 on host nid006243 reporting.
  Task      457 on host nid006243 reporting.
  Task      458 on host nid006243 reporting.
  Task      459 on host nid006243 reporting.
  Task      460 on host nid006243 reporting.
  Task      461 on host nid006243 reporting.
  Task      462 on host nid006243 reporting.
  Task      463 on host nid006243 reporting.
  Task      464 on host nid006243 reporting.
  Task      465 on host nid006243 reporting.
  Task      466 on host nid006243 reporting.
  Task      467 on host nid006243 reporting.
  Task      468 on host nid006243 reporting.
  Task      469 on host nid006243 reporting.
  Task      470 on host nid006243 reporting.
  Task      471 on host nid006243 reporting.
  Task      472 on host nid006243 reporting.
  Task      473 on host nid006243 reporting.
  Task      474 on host nid006243 reporting.
  Task      475 on host nid006243 reporting.
  Task      476 on host nid006243 reporting.
  Task      477 on host nid006243 reporting.
  Task      478 on host nid006243 reporting.
  Task      479 on host nid006243 reporting.
  Task      480 on host nid006243 reporting.
  Task      481 on host nid006243 reporting.
  Task      482 on host nid006243 reporting.
  Task      483 on host nid006243 reporting.
  Task      484 on host nid006243 reporting.
  Task      485 on host nid006243 reporting.
  Task      486 on host nid006243 reporting.
  Task      487 on host nid006243 reporting.
  Task      488 on host nid006243 reporting.
  Task      489 on host nid006243 reporting.
  Task      490 on host nid006243 reporting.
  Task      491 on host nid006243 reporting.
  Task      492 on host nid006243 reporting.
  Task      493 on host nid006243 reporting.
  Task      494 on host nid006243 reporting.
  Task      495 on host nid006243 reporting.
  Task      496 on host nid006243 reporting.
  Task      497 on host nid006243 reporting.
  Task      498 on host nid006243 reporting.
  Task      499 on host nid006243 reporting.
  Task      500 on host nid006243 reporting.
  Task      501 on host nid006243 reporting.
  Task      502 on host nid006243 reporting.
  Task      503 on host nid006243 reporting.
  Task      504 on host nid006243 reporting.
  Task      505 on host nid006243 reporting.
  Task      506 on host nid006243 reporting.
  Task      507 on host nid006243 reporting.
  Task      508 on host nid006243 reporting.
  Task      509 on host nid006243 reporting.
  Task      510 on host nid006243 reporting.
  Task      511 on host nid006243 reporting.

  Performing system and environment tests:
  | Environment variable OMP_NUM_THREADS correctly set to 1.
  | Checking for ScaLAPACK...
  | Testing pdtran()...
  | All pdtran() tests passed.

  Obtaining array dimensions for all initial allocations:
  
  -----------------------------------------------------------------------
  Parsing control.in (first pass over file, find array dimensions only).
  The contents of control.in will be repeated verbatim below
  unless switched off by setting 'verbatim_writeout .false.' .
  in the first line of control.in .
  -----------------------------------------------------------------------
  
  xc               pbesol
  charge           0.
  spin             none
  relativistic atomic_zora scalar
  k_grid                16 16 12
  sc_accuracy_rho       1E-7
  sc_accuracy_forces    1E-6
  relax_geometry trm    5E-3
  relax_unit_cell       full
  ################################################################################
  #
  #  FHI-aims code project
  #  Volker Blum, Fritz Haber Institute Berlin, 2009
  #
  #  Suggested "tight" defaults for Ba atom (to be pasted into control.in file)
  #
  #  The onset of the cutoff pot'l WAS set to 8 A by default, because the neutral
  #  Ba atom is a large atom. However, this is very expensive. The radius should be
  #  much smaller in real-world situations, where Ba will be ionic. Please check
  #  and reduce the cutoff radius explicitly.
  #
  #  2015/11/12 : f and g functions from tier2 added to default basis set choice.
  #               These functions make a difference in the "delta test".
  #               Reduced the default cutoff radius to 6AA. The free-atom 6s function
  #               requires more. However, 6AA is already VERY expensive for
  #               any production calculations. In fact, revisit this choice for
  #               ionic systems to see if a smaller cutoff radius will do.
  #
  ################################################################################
    species          Ba
  #     global species definitions
      nucleus        56
      mass           137.327
  #
      l_hartree      6
  #
      cut_pot        6.0  2.0  1.0
      basis_dep_cutoff    1e-4
  #
      radial_base    65  7.0
      radial_multiplier  2
      angular_grids specified
        division   0.6752  110
        division   0.9746  194
        division   1.2241  302
        division   1.3850  434
  #      division   1.4734  590
  #      division   1.6010  770
  #      division   4.8366  974
  #      outer_grid  974
        outer_grid  434
  ################################################################################
  #
  #  Definition of "minimal" basis
  #
  ################################################################################
  #     valence basis states
      valence      6  s   2.
      valence      5  p   6.
      valence      4  d  10.
  #     ion occupancy
      ion_occ      6  s   1.
      ion_occ      5  p   6.
      ion_occ      4  d  10.
  ################################################################################
  #
  #  Suggested additional basis functions. For production calculations,
  #  uncomment them one after another (the most important basis functions are
  #  listed first).
  #
  #  Constructed for dimers: 2.65, 3.00, 3.50, 4.40, 5.50 Ang
  #
  ################################################################################
  #  "First tier" - improvements: -1277.43 meV to -9.16 meV
       ionic 5 d auto
       ionic 4 f auto
       hydro 3 p 2.7
       hydro 4 s 3.3
  #  "Second tier" - improvements: -64.04 (!) meV to -0.25 meV
       hydro 4 f 5.8
       hydro 5 g 7.4
  #     hydro 4 d 4.5
  #     hydro 6 h 11.2
  #     hydro 5 p 6.6
  #     hydro 2 s 3.2
  #  "Third tier" - max. impr. -1.16 meV, min. impr. -0.08 meV
  #     hydro 5 f 7.4
  #     hydro 5 g 10.8
  #     hydro 4 d 2.3
  #     hydro 4 p 3.7
  #     hydro 5 s 4.0
  #  Further functions - impr. -0.35 meV and below
  #     hydro 5 d 3.5
  #     hydro 6 d 0.4
  #     hydro 2 p 2.5
  #     hydro 5 f 12
  #     hydro 6 d 8.8
  ################################################################################
  #
  #  FHI-aims code project
  #  Volker Blum, Fritz Haber Institute Berlin, 2009
  #
  #  Suggested "tight" defaults for Zr atom (to be pasted into control.in file)
  #
  ################################################################################
    species          Zr
  #     global species definitions
      nucleus        40
      mass           91.224
  #
      l_hartree      6
  #
      cut_pot        4.0  2.0  1.0
      basis_dep_cutoff    1e-4
  #
      radial_base    58  7.0
      radial_multiplier  2
      angular_grids specified
        division   0.3653   50
        division   0.8035  110
        division   1.2273  194
        division   1.4586  302
        division   1.6764  434
  #      division   1.9671  590
  #      division   2.1961  770
  #      division   2.3240  974
  #      division   3.4772 1202
  #      outer_grid  974
        outer_grid  434
  ################################################################################
  #
  #  Definition of "minimal" basis
  #
  ################################################################################
  #     valence basis states
      valence      5  s   2.
      valence      4  p   6.
      valence      4  d   2.
  #     ion occupancy
      ion_occ      5  s   1.
      ion_occ      4  p   6.
      ion_occ      4  d   1.
  ################################################################################
  #
  #  Suggested additional basis functions. For production calculations,
  #  uncomment them one after another (the most important basis functions are
  #  listed first).
  #
  #  Constructed for dimers: 1.9, 2.25, 3.00, 4.00 Ang
  #
  ################################################################################
  #  "First tier" - improvements: -605.96 meV to -18.06 meV
       hydro 4 f 7.2
       ionic 4 d auto
       ionic 5 p auto
       hydro 5 g 10.4
       ionic 5 s auto
  #  "Second tier" - improvements: -32.47 meV to -1.41 meV
  #     hydro 4 f 10.4
  #     hydro 6 h 14.8
  #     hydro 4 d 6.2
  #     hydro 4 p 4.4
  #     hydro 4 f 20
  #     hydro 5 s 6
  #  "Third tier" - improvements: -1.99 meV and lower.
  #     hydro 4 f 5.8
  #     hydro 5 g 10.8
  #     hydro 2 p 1
  #     hydro 3 d 8
  #     hydro 6 h 14.4
  #     hydro 1 s 0.9
  #  Further functions (approx -0.40 meV and below possible)
  ################################################################################
  #
  #  FHI-aims code project
  #  Volker Blum, Fritz Haber Institute Berlin, 2009
  #
  #  Suggested "tight" defaults for S atom (to be pasted into control.in file)
  #
  #  Revised Jan 04, 2011, following tests (SiC) done by Lydia Nemec:
  #     d and g functions of tier 2 now enabled by default.
  #
  ################################################################################
    species        S
  #     global species definitions
      nucleus             16
      mass                32.065
  #
      l_hartree           6
  #
      cut_pot             4.0          2.0  1.0
      basis_dep_cutoff    1e-4
  #
      radial_base         44 7.0
      radial_multiplier   2
      angular_grids       specified
        division   0.4665  110
        division   0.5810  194
        division   0.7139  302
        division   0.8274  434
  #      division   0.9105  590
  #      division   1.0975  770
  #      division   1.2028  974
  #      outer_grid  974
        outer_grid  434
  ################################################################################
  #
  #  Definition of "minimal" basis
  #
  ################################################################################
  #     valence basis states
      valence      3  s   2.
      valence      3  p   4.
  #     ion occupancy
      ion_occ      3  s   1.
      ion_occ      3  p   3.
  ################################################################################
  #
  #  Suggested additional basis functions. For production calculations,
  #  uncomment them one after another (the most important basis functions are
  #  listed first).
  #
  #  Constructed for dimers: 1.6 A, 1.9 A, 2.5 A, 3.25 A, 4.0 A
  #
  ################################################################################
  #  "First tier" - improvements: -652.81 meV to -45.53 meV
       ionic 3 d auto
       hydro 2 p 1.8
       hydro 4 f 7
       ionic 3 s auto
  #  "Second tier" - improvements: -30.20 meV to -1.74 meV
       hydro 4 d 6.2
       hydro 5 g 10.8
  #     hydro 4 p 4.9
  #     hydro 5 f 10
  #     hydro 1 s 0.8
  #  "Third tier" - improvements: -1.04 meV to -0.20 meV
  #     hydro 3 d 3.9
  #     hydro 3 d 2.7
  #     hydro 5 g 12
  #     hydro 4 p 10.4
  #     hydro 5 f 12.4
  #     hydro 2 s 1.9
  #  "Fourth tier" - improvements: -0.35 meV to -0.06 meV
  #     hydro 4 d 10.4
  #     hydro 4 p 7.2
  #     hydro 4 d 10
  #     hydro 5 g 19.2
  #     hydro 4 s 12
  
  ################################################################################
  #
  # For methods that use the localized form of the "resolution of identity" for
  # the two-electron Coulomb operator (RI_method LVL), particularly Hartree-Fock and
  # hybrid density functional calculations, the highest accuracy can be obtained by
  # uncommenting the line beginning with "for_aux"  below, thus adding an extra g radial
  # function to the construction of the product basis set for the expansion.
  # See Ref. New J. Phys. 17, 093020 (2015) for more information, particularly Figs. 1 and 6.
  #
  ################################################################################
  #
  # for_aux hydro 5 g 6.0
  
  -----------------------------------------------------------------------
  Completed first pass over input file control.in .
  -----------------------------------------------------------------------
  
  
  -----------------------------------------------------------------------
  Parsing geometry.in (first pass over file, find array dimensions only).
  The contents of geometry.in will be repeated verbatim below
  unless switched off by setting 'verbatim_writeout .false.' .
  in the first line of geometry.in .
  -----------------------------------------------------------------------
  
  lattice_vector  1.75000000000000 -3.03108891324554  0.00000000000000
  lattice_vector  1.75000000000000  3.03108891324554  0.00000000000000
  lattice_vector  0.00000000000000  0.00000000000000  6.30000000000000
  atom_frac  0.33333300000000  0.66666700000000  0.25000000000000 Zr
  atom_frac  0.66666700000000  0.33333300000000  0.75000000000000 Zr
  # format: symmetry_n_params [n n_lv n_fracpos]
  symmetry_n_params 2 2 0
  symmetry_params a c
  symmetry_lv 0.5*a , -0.866025*a , 0
  symmetry_lv 0.5*a , 0.866025*a , 0
  symmetry_lv 0 , 0 , c
  symmetry_frac 0.333333 , 0.666667 , 0.25
  symmetry_frac 0.666667 , 0.333333 , 0.75
  
  -----------------------------------------------------------------------
  Completed first pass over input file geometry.in .
  -----------------------------------------------------------------------
  

  Basic array size parameters:
  | Number of species                 :        3
  | Number of atoms                   :        2
  | Number of lattice vectors         :        3
  | Max. basis fn. angular momentum   :        4
  | Max. atomic/ionic basis occupied n:        6
  | Max. number of basis fn. types    :        3
  | Max. radial fns per species/type  :       12
  | Max. logarithmic grid size        :     1460
  | Max. radial integration grid size :      131
  | Max. angular integration grid size:      434
  | Max. angular grid division number :        8
  | Radial grid for Hartree potential :     1460
  | Number of spin channels           :        1

------------------------------------------------------------
          Reading file control.in.
------------------------------------------------------------
  XC: Using PBEsol gradient-corrected functionals.
  Charge =   0.000000E+00: Neutral system requested explicitly.
  Spin treatment: No spin polarisation.
  Scalar relativistic treatment of kinetic energy: on-site free-atom approximation to ZORA.
  Found k-point grid:        16        16        12
  Convergence accuracy of self-consistent charge density:  0.1000E-06
  Convergence accuracy of forces:  0.1000E-05
  Geometry relaxation: Modified BFGS - TRM (trust radius method) for lattice optimization.
  Convergence accuracy for geometry relaxation: Maximum force <   0.500000E-02 eV/A.

  Reading configuration options for species Ba                  .
  | Found nuclear charge :  56.0000
  | Found atomic mass :    137.32700000000000      amu
  | Found l_max for Hartree potential  :   6
  | Found cutoff potl. onset [A], width [A], scale factor :    6.00000    2.00000    1.00000
  | Threshold for basis-dependent cutoff potential is   0.100000E-03
  | Found data for basic radial integration grid :    65 points, outermost radius =    7.000 A
  | Found multiplier for basic radial grid :   2
  | Found angular grid specification: user-specified.
  | Specified grid contains     5 separate shells.
  | Check grid settings after all constraints further below.
  | Found free-atom valence shell :  6 s   2.000
  | Found free-atom valence shell :  5 p   6.000
  | Found free-atom valence shell :  4 d  10.000
  | Found free-ion valence shell :  6 s   1.000
  | Found free-ion valence shell :  5 p   6.000
  | Found free-ion valence shell :  4 d  10.000
  | Found ionic basis function :  5 d , default cutoff radius.
  | Found ionic basis function :  4 f , default cutoff radius.
  | Found hydrogenic basis function :  3 p   2.700
  | Found hydrogenic basis function :  4 s   3.300
  | Found hydrogenic basis function :  4 f   5.800
  | Found hydrogenic basis function :  5 g   7.400
  Species Ba                  : Missing cutoff potential type.
  Defaulting to exp(1/x)/(1-x)^2 type cutoff potential.
  Species Ba: No 'logarithmic' tag. Using default grid for free atom:
  | Default logarithmic grid data [bohr] : 0.1000E-03 0.1000E+03 0.1012E+01
  | Will include ionic basis functions of  1.0-fold positive Ba                   ion.
  Species Ba: On-site basis accuracy parameter (for Gram-Schmidt orthonormalisation) not specified.
  Using default value basis_acc =  0.1000000E-03.
  Species Ba                  : Using default innermost maximum threshold i_radial=  2 for radial functions.
  Species Ba                  : Default cutoff onset for free atom density etc. : 0.60000000E+01 AA.
  Species Ba                  : Basic radial grid will be enhanced according to radial_multiplier =   2, to contain   131 grid points.

  Reading configuration options for species Zr                  .
  | Found nuclear charge :  40.0000
  | Found atomic mass :    91.224000000000004      amu
  | Found l_max for Hartree potential  :   6
  | Found cutoff potl. onset [A], width [A], scale factor :    4.00000    2.00000    1.00000
  | Threshold for basis-dependent cutoff potential is   0.100000E-03
  | Found data for basic radial integration grid :    58 points, outermost radius =    7.000 A
  | Found multiplier for basic radial grid :   2
  | Found angular grid specification: user-specified.
  | Specified grid contains     6 separate shells.
  | Check grid settings after all constraints further below.
  | Found free-atom valence shell :  5 s   2.000
  | Found free-atom valence shell :  4 p   6.000
  | Found free-atom valence shell :  4 d   2.000
  | Found free-ion valence shell :  5 s   1.000
  | Found free-ion valence shell :  4 p   6.000
  | Found free-ion valence shell :  4 d   1.000
  | Found hydrogenic basis function :  4 f   7.200
  | Found ionic basis function :  4 d , default cutoff radius.
  | Found ionic basis function :  5 p , default cutoff radius.
  | Found hydrogenic basis function :  5 g  10.400
  | Found ionic basis function :  5 s , default cutoff radius.
  Species Zr                  : Missing cutoff potential type.
  Defaulting to exp(1/x)/(1-x)^2 type cutoff potential.
  Species Zr: No 'logarithmic' tag. Using default grid for free atom:
  | Default logarithmic grid data [bohr] : 0.1000E-03 0.1000E+03 0.1012E+01
  | Will include ionic basis functions of  2.0-fold positive Zr                   ion.
  Species Zr: On-site basis accuracy parameter (for Gram-Schmidt orthonormalisation) not specified.
  Using default value basis_acc =  0.1000000E-03.
  Species Zr                  : Using default innermost maximum threshold i_radial=  2 for radial functions.
  Species Zr                  : Default cutoff onset for free atom density etc. : 0.40000000E+01 AA.
  Species Zr                  : Basic radial grid will be enhanced according to radial_multiplier =   2, to contain   117 grid points.

  Reading configuration options for species S                   .
  | Found nuclear charge :  16.0000
  | Found atomic mass :    32.064999999999998      amu
  | Found l_max for Hartree potential  :   6
  | Found cutoff potl. onset [A], width [A], scale factor :    4.00000    2.00000    1.00000
  | Threshold for basis-dependent cutoff potential is   0.100000E-03
  | Found data for basic radial integration grid :    44 points, outermost radius =    7.000 A
  | Found multiplier for basic radial grid :   2
  | Found angular grid specification: user-specified.
  | Specified grid contains     5 separate shells.
  | Check grid settings after all constraints further below.
  | Found free-atom valence shell :  3 s   2.000
  | Found free-atom valence shell :  3 p   4.000
  | Found free-ion valence shell :  3 s   1.000
  | Found free-ion valence shell :  3 p   3.000
  | Found ionic basis function :  3 d , default cutoff radius.
  | Found hydrogenic basis function :  2 p   1.800
  | Found hydrogenic basis function :  4 f   7.000
  | Found ionic basis function :  3 s , default cutoff radius.
  | Found hydrogenic basis function :  4 d   6.200
  | Found hydrogenic basis function :  5 g  10.800
  Species S                   : Missing cutoff potential type.
  Defaulting to exp(1/x)/(1-x)^2 type cutoff potential.
  Species S : No 'logarithmic' tag. Using default grid for free atom:
  | Default logarithmic grid data [bohr] : 0.1000E-03 0.1000E+03 0.1012E+01
  | Will include ionic basis functions of  2.0-fold positive S                    ion.
  Species S : On-site basis accuracy parameter (for Gram-Schmidt orthonormalisation) not specified.
  Using default value basis_acc =  0.1000000E-03.
  Species S                   : Using default innermost maximum threshold i_radial=  2 for radial functions.
  Species S                   : Default cutoff onset for free atom density etc. : 0.40000000E+01 AA.
  Species S                   : Basic radial grid will be enhanced according to radial_multiplier =   2, to contain    89 grid points.

  Finished reading input file 'control.in'.

------------------------------------------------------------


------------------------------------------------------------
          Reading geometry description geometry.in.
------------------------------------------------------------
  | The smallest distance between any two atoms is         3.50000000 AA.
  | The first atom of this pair is atom number                      2 .
  | The second atom of this pair is atom number                     2 .
  | Wigner-Seitz cell of the first atom image           1     1     0 .
  | (The Wigner-Seitz cell of the second atom is 0 0 0  by definition.)

  Symmetry information by spglib:
  | Precision set to  0.1E-04
  | Number of Operations  : 8
  | Space group           : 63
  | International         : Cmcm
  | Schoenflies           : D2h^17
  Input structure read successfully.
  The structure contains        2 atoms,  and a total of         80.000 electrons.

  Input geometry:
  | Unit cell:
  |        1.75000061       -3.03108856        0.00000000
  |        1.75000061        3.03108856        0.00000000
  |        0.00000000        0.00000000        6.30000000
  | Atomic structure:
  |       Atom                x [A]            y [A]            z [A]
  |    1: Species Zr            1.75000000        1.01036499        1.57500000
  |    2: Species Zr            1.75000000       -1.01036499        4.72500000

  Lattice parameters for 3D lattice (in Angstroms) :     3.500000    3.500000    6.300000
  Angle(s) between unit vectors (in degrees)       :    90.000000   90.000000  119.999977


  Quantities derived from the lattice vectors (in Angstrom^-1):
  | Reciprocal lattice vector 1:  1.795196 -1.036457  0.000000
  | Reciprocal lattice vector 2:  1.795196  1.036457  0.000000
  | Reciprocal lattice vector 3:  0.000000  0.000000  0.997331
  | Unit cell volume                               :   0.668355E+02  Angstrom^3

  Fractional coordinates:
                         L1                L2                L3
       atom_frac         0.33333281        0.66666684        0.25000000  Zr
       atom_frac         0.66666684        0.33333281        0.75000000  Zr


  Finished reading input file 'control.in'.


------------------------------------------------------------
          Reading geometry description geometry.in.
------------------------------------------------------------

  Consistency checks for stacksize environment parameter are next.

  | Maximum stacksize for task 0: unlimited
  | Maximum stacksize for task 1: unlimited
  | Maximum stacksize for task 2: unlimited
  | Maximum stacksize for task 3: unlimited
  | Maximum stacksize for task 4: unlimited
  | Maximum stacksize for task 5: unlimited
  | Maximum stacksize for task 6: unlimited
  | Maximum stacksize for task 7: unlimited
  | Maximum stacksize for task 8: unlimited
  | Maximum stacksize for task 9: unlimited
  | Maximum stacksize for task 10: unlimited
  | Maximum stacksize for task 11: unlimited
  | Maximum stacksize for task 12: unlimited
  | Maximum stacksize for task 13: unlimited
  | Maximum stacksize for task 14: unlimited
  | Maximum stacksize for task 15: unlimited
  | Maximum stacksize for task 16: unlimited
  | Maximum stacksize for task 17: unlimited
  | Maximum stacksize for task 18: unlimited
  | Maximum stacksize for task 19: unlimited
  | Maximum stacksize for task 20: unlimited
  | Maximum stacksize for task 21: unlimited
  | Maximum stacksize for task 22: unlimited
  | Maximum stacksize for task 23: unlimited
  | Maximum stacksize for task 24: unlimited
  | Maximum stacksize for task 25: unlimited
  | Maximum stacksize for task 26: unlimited
  | Maximum stacksize for task 27: unlimited
  | Maximum stacksize for task 28: unlimited
  | Maximum stacksize for task 29: unlimited
  | Maximum stacksize for task 30: unlimited
  | Maximum stacksize for task 31: unlimited
  | Maximum stacksize for task 32: unlimited
  | Maximum stacksize for task 33: unlimited
  | Maximum stacksize for task 34: unlimited
  | Maximum stacksize for task 35: unlimited
  | Maximum stacksize for task 36: unlimited
  | Maximum stacksize for task 37: unlimited
  | Maximum stacksize for task 38: unlimited
  | Maximum stacksize for task 39: unlimited
  | Maximum stacksize for task 40: unlimited
  | Maximum stacksize for task 41: unlimited
  | Maximum stacksize for task 42: unlimited
  | Maximum stacksize for task 43: unlimited
  | Maximum stacksize for task 44: unlimited
  | Maximum stacksize for task 45: unlimited
  | Maximum stacksize for task 46: unlimited
  | Maximum stacksize for task 47: unlimited
  | Maximum stacksize for task 48: unlimited
  | Maximum stacksize for task 49: unlimited
  | Maximum stacksize for task 50: unlimited
  | Maximum stacksize for task 51: unlimited
  | Maximum stacksize for task 52: unlimited
  | Maximum stacksize for task 53: unlimited
  | Maximum stacksize for task 54: unlimited
  | Maximum stacksize for task 55: unlimited
  | Maximum stacksize for task 56: unlimited
  | Maximum stacksize for task 57: unlimited
  | Maximum stacksize for task 58: unlimited
  | Maximum stacksize for task 59: unlimited
  | Maximum stacksize for task 60: unlimited
  | Maximum stacksize for task 61: unlimited
  | Maximum stacksize for task 62: unlimited
  | Maximum stacksize for task 63: unlimited
  | Maximum stacksize for task 64: unlimited
  | Maximum stacksize for task 65: unlimited
  | Maximum stacksize for task 66: unlimited
  | Maximum stacksize for task 67: unlimited
  | Maximum stacksize for task 68: unlimited
  | Maximum stacksize for task 69: unlimited
  | Maximum stacksize for task 70: unlimited
  | Maximum stacksize for task 71: unlimited
  | Maximum stacksize for task 72: unlimited
  | Maximum stacksize for task 73: unlimited
  | Maximum stacksize for task 74: unlimited
  | Maximum stacksize for task 75: unlimited
  | Maximum stacksize for task 76: unlimited
  | Maximum stacksize for task 77: unlimited
  | Maximum stacksize for task 78: unlimited
  | Maximum stacksize for task 79: unlimited
  | Maximum stacksize for task 80: unlimited
  | Maximum stacksize for task 81: unlimited
  | Maximum stacksize for task 82: unlimited
  | Maximum stacksize for task 83: unlimited
  | Maximum stacksize for task 84: unlimited
  | Maximum stacksize for task 85: unlimited
  | Maximum stacksize for task 86: unlimited
  | Maximum stacksize for task 87: unlimited
  | Maximum stacksize for task 88: unlimited
  | Maximum stacksize for task 89: unlimited
  | Maximum stacksize for task 90: unlimited
  | Maximum stacksize for task 91: unlimited
  | Maximum stacksize for task 92: unlimited
  | Maximum stacksize for task 93: unlimited
  | Maximum stacksize for task 94: unlimited
  | Maximum stacksize for task 95: unlimited
  | Maximum stacksize for task 96: unlimited
  | Maximum stacksize for task 97: unlimited
  | Maximum stacksize for task 98: unlimited
  | Maximum stacksize for task 99: unlimited
  | Maximum stacksize for task 100: unlimited
  | Maximum stacksize for task 101: unlimited
  | Maximum stacksize for task 102: unlimited
  | Maximum stacksize for task 103: unlimited
  | Maximum stacksize for task 104: unlimited
  | Maximum stacksize for task 105: unlimited
  | Maximum stacksize for task 106: unlimited
  | Maximum stacksize for task 107: unlimited
  | Maximum stacksize for task 108: unlimited
  | Maximum stacksize for task 109: unlimited
  | Maximum stacksize for task 110: unlimited
  | Maximum stacksize for task 111: unlimited
  | Maximum stacksize for task 112: unlimited
  | Maximum stacksize for task 113: unlimited
  | Maximum stacksize for task 114: unlimited
  | Maximum stacksize for task 115: unlimited
  | Maximum stacksize for task 116: unlimited
  | Maximum stacksize for task 117: unlimited
  | Maximum stacksize for task 118: unlimited
  | Maximum stacksize for task 119: unlimited
  | Maximum stacksize for task 120: unlimited
  | Maximum stacksize for task 121: unlimited
  | Maximum stacksize for task 122: unlimited
  | Maximum stacksize for task 123: unlimited
  | Maximum stacksize for task 124: unlimited
  | Maximum stacksize for task 125: unlimited
  | Maximum stacksize for task 126: unlimited
  | Maximum stacksize for task 127: unlimited
  | Maximum stacksize for task 128: unlimited
  | Maximum stacksize for task 129: unlimited
  | Maximum stacksize for task 130: unlimited
  | Maximum stacksize for task 131: unlimited
  | Maximum stacksize for task 132: unlimited
  | Maximum stacksize for task 133: unlimited
  | Maximum stacksize for task 134: unlimited
  | Maximum stacksize for task 135: unlimited
  | Maximum stacksize for task 136: unlimited
  | Maximum stacksize for task 137: unlimited
  | Maximum stacksize for task 138: unlimited
  | Maximum stacksize for task 139: unlimited
  | Maximum stacksize for task 140: unlimited
  | Maximum stacksize for task 141: unlimited
  | Maximum stacksize for task 142: unlimited
  | Maximum stacksize for task 143: unlimited
  | Maximum stacksize for task 144: unlimited
  | Maximum stacksize for task 145: unlimited
  | Maximum stacksize for task 146: unlimited
  | Maximum stacksize for task 147: unlimited
  | Maximum stacksize for task 148: unlimited
  | Maximum stacksize for task 149: unlimited
  | Maximum stacksize for task 150: unlimited
  | Maximum stacksize for task 151: unlimited
  | Maximum stacksize for task 152: unlimited
  | Maximum stacksize for task 153: unlimited
  | Maximum stacksize for task 154: unlimited
  | Maximum stacksize for task 155: unlimited
  | Maximum stacksize for task 156: unlimited
  | Maximum stacksize for task 157: unlimited
  | Maximum stacksize for task 158: unlimited
  | Maximum stacksize for task 159: unlimited
  | Maximum stacksize for task 160: unlimited
  | Maximum stacksize for task 161: unlimited
  | Maximum stacksize for task 162: unlimited
  | Maximum stacksize for task 163: unlimited
  | Maximum stacksize for task 164: unlimited
  | Maximum stacksize for task 165: unlimited
  | Maximum stacksize for task 166: unlimited
  | Maximum stacksize for task 167: unlimited
  | Maximum stacksize for task 168: unlimited
  | Maximum stacksize for task 169: unlimited
  | Maximum stacksize for task 170: unlimited
  | Maximum stacksize for task 171: unlimited
  | Maximum stacksize for task 172: unlimited
  | Maximum stacksize for task 173: unlimited
  | Maximum stacksize for task 174: unlimited
  | Maximum stacksize for task 175: unlimited
  | Maximum stacksize for task 176: unlimited
  | Maximum stacksize for task 177: unlimited
  | Maximum stacksize for task 178: unlimited
  | Maximum stacksize for task 179: unlimited
  | Maximum stacksize for task 180: unlimited
  | Maximum stacksize for task 181: unlimited
  | Maximum stacksize for task 182: unlimited
  | Maximum stacksize for task 183: unlimited
  | Maximum stacksize for task 184: unlimited
  | Maximum stacksize for task 185: unlimited
  | Maximum stacksize for task 186: unlimited
  | Maximum stacksize for task 187: unlimited
  | Maximum stacksize for task 188: unlimited
  | Maximum stacksize for task 189: unlimited
  | Maximum stacksize for task 190: unlimited
  | Maximum stacksize for task 191: unlimited
  | Maximum stacksize for task 192: unlimited
  | Maximum stacksize for task 193: unlimited
  | Maximum stacksize for task 194: unlimited
  | Maximum stacksize for task 195: unlimited
  | Maximum stacksize for task 196: unlimited
  | Maximum stacksize for task 197: unlimited
  | Maximum stacksize for task 198: unlimited
  | Maximum stacksize for task 199: unlimited
  | Maximum stacksize for task 200: unlimited
  | Maximum stacksize for task 201: unlimited
  | Maximum stacksize for task 202: unlimited
  | Maximum stacksize for task 203: unlimited
  | Maximum stacksize for task 204: unlimited
  | Maximum stacksize for task 205: unlimited
  | Maximum stacksize for task 206: unlimited
  | Maximum stacksize for task 207: unlimited
  | Maximum stacksize for task 208: unlimited
  | Maximum stacksize for task 209: unlimited
  | Maximum stacksize for task 210: unlimited
  | Maximum stacksize for task 211: unlimited
  | Maximum stacksize for task 212: unlimited
  | Maximum stacksize for task 213: unlimited
  | Maximum stacksize for task 214: unlimited
  | Maximum stacksize for task 215: unlimited
  | Maximum stacksize for task 216: unlimited
  | Maximum stacksize for task 217: unlimited
  | Maximum stacksize for task 218: unlimited
  | Maximum stacksize for task 219: unlimited
  | Maximum stacksize for task 220: unlimited
  | Maximum stacksize for task 221: unlimited
  | Maximum stacksize for task 222: unlimited
  | Maximum stacksize for task 223: unlimited
  | Maximum stacksize for task 224: unlimited
  | Maximum stacksize for task 225: unlimited
  | Maximum stacksize for task 226: unlimited
  | Maximum stacksize for task 227: unlimited
  | Maximum stacksize for task 228: unlimited
  | Maximum stacksize for task 229: unlimited
  | Maximum stacksize for task 230: unlimited
  | Maximum stacksize for task 231: unlimited
  | Maximum stacksize for task 232: unlimited
  | Maximum stacksize for task 233: unlimited
  | Maximum stacksize for task 234: unlimited
  | Maximum stacksize for task 235: unlimited
  | Maximum stacksize for task 236: unlimited
  | Maximum stacksize for task 237: unlimited
  | Maximum stacksize for task 238: unlimited
  | Maximum stacksize for task 239: unlimited
  | Maximum stacksize for task 240: unlimited
  | Maximum stacksize for task 241: unlimited
  | Maximum stacksize for task 242: unlimited
  | Maximum stacksize for task 243: unlimited
  | Maximum stacksize for task 244: unlimited
  | Maximum stacksize for task 245: unlimited
  | Maximum stacksize for task 246: unlimited
  | Maximum stacksize for task 247: unlimited
  | Maximum stacksize for task 248: unlimited
  | Maximum stacksize for task 249: unlimited
  | Maximum stacksize for task 250: unlimited
  | Maximum stacksize for task 251: unlimited
  | Maximum stacksize for task 252: unlimited
  | Maximum stacksize for task 253: unlimited
  | Maximum stacksize for task 254: unlimited
  | Maximum stacksize for task 255: unlimited
  | Maximum stacksize for task 256: unlimited
  | Maximum stacksize for task 257: unlimited
  | Maximum stacksize for task 258: unlimited
  | Maximum stacksize for task 259: unlimited
  | Maximum stacksize for task 260: unlimited
  | Maximum stacksize for task 261: unlimited
  | Maximum stacksize for task 262: unlimited
  | Maximum stacksize for task 263: unlimited
  | Maximum stacksize for task 264: unlimited
  | Maximum stacksize for task 265: unlimited
  | Maximum stacksize for task 266: unlimited
  | Maximum stacksize for task 267: unlimited
  | Maximum stacksize for task 268: unlimited
  | Maximum stacksize for task 269: unlimited
  | Maximum stacksize for task 270: unlimited
  | Maximum stacksize for task 271: unlimited
  | Maximum stacksize for task 272: unlimited
  | Maximum stacksize for task 273: unlimited
  | Maximum stacksize for task 274: unlimited
  | Maximum stacksize for task 275: unlimited
  | Maximum stacksize for task 276: unlimited
  | Maximum stacksize for task 277: unlimited
  | Maximum stacksize for task 278: unlimited
  | Maximum stacksize for task 279: unlimited
  | Maximum stacksize for task 280: unlimited
  | Maximum stacksize for task 281: unlimited
  | Maximum stacksize for task 282: unlimited
  | Maximum stacksize for task 283: unlimited
  | Maximum stacksize for task 284: unlimited
  | Maximum stacksize for task 285: unlimited
  | Maximum stacksize for task 286: unlimited
  | Maximum stacksize for task 287: unlimited
  | Maximum stacksize for task 288: unlimited
  | Maximum stacksize for task 289: unlimited
  | Maximum stacksize for task 290: unlimited
  | Maximum stacksize for task 291: unlimited
  | Maximum stacksize for task 292: unlimited
  | Maximum stacksize for task 293: unlimited
  | Maximum stacksize for task 294: unlimited
  | Maximum stacksize for task 295: unlimited
  | Maximum stacksize for task 296: unlimited
  | Maximum stacksize for task 297: unlimited
  | Maximum stacksize for task 298: unlimited
  | Maximum stacksize for task 299: unlimited
  | Maximum stacksize for task 300: unlimited
  | Maximum stacksize for task 301: unlimited
  | Maximum stacksize for task 302: unlimited
  | Maximum stacksize for task 303: unlimited
  | Maximum stacksize for task 304: unlimited
  | Maximum stacksize for task 305: unlimited
  | Maximum stacksize for task 306: unlimited
  | Maximum stacksize for task 307: unlimited
  | Maximum stacksize for task 308: unlimited
  | Maximum stacksize for task 309: unlimited
  | Maximum stacksize for task 310: unlimited
  | Maximum stacksize for task 311: unlimited
  | Maximum stacksize for task 312: unlimited
  | Maximum stacksize for task 313: unlimited
  | Maximum stacksize for task 314: unlimited
  | Maximum stacksize for task 315: unlimited
  | Maximum stacksize for task 316: unlimited
  | Maximum stacksize for task 317: unlimited
  | Maximum stacksize for task 318: unlimited
  | Maximum stacksize for task 319: unlimited
  | Maximum stacksize for task 320: unlimited
  | Maximum stacksize for task 321: unlimited
  | Maximum stacksize for task 322: unlimited
  | Maximum stacksize for task 323: unlimited
  | Maximum stacksize for task 324: unlimited
  | Maximum stacksize for task 325: unlimited
  | Maximum stacksize for task 326: unlimited
  | Maximum stacksize for task 327: unlimited
  | Maximum stacksize for task 328: unlimited
  | Maximum stacksize for task 329: unlimited
  | Maximum stacksize for task 330: unlimited
  | Maximum stacksize for task 331: unlimited
  | Maximum stacksize for task 332: unlimited
  | Maximum stacksize for task 333: unlimited
  | Maximum stacksize for task 334: unlimited
  | Maximum stacksize for task 335: unlimited
  | Maximum stacksize for task 336: unlimited
  | Maximum stacksize for task 337: unlimited
  | Maximum stacksize for task 338: unlimited
  | Maximum stacksize for task 339: unlimited
  | Maximum stacksize for task 340: unlimited
  | Maximum stacksize for task 341: unlimited
  | Maximum stacksize for task 342: unlimited
  | Maximum stacksize for task 343: unlimited
  | Maximum stacksize for task 344: unlimited
  | Maximum stacksize for task 345: unlimited
  | Maximum stacksize for task 346: unlimited
  | Maximum stacksize for task 347: unlimited
  | Maximum stacksize for task 348: unlimited
  | Maximum stacksize for task 349: unlimited
  | Maximum stacksize for task 350: unlimited
  | Maximum stacksize for task 351: unlimited
  | Maximum stacksize for task 352: unlimited
  | Maximum stacksize for task 353: unlimited
  | Maximum stacksize for task 354: unlimited
  | Maximum stacksize for task 355: unlimited
  | Maximum stacksize for task 356: unlimited
  | Maximum stacksize for task 357: unlimited
  | Maximum stacksize for task 358: unlimited
  | Maximum stacksize for task 359: unlimited
  | Maximum stacksize for task 360: unlimited
  | Maximum stacksize for task 361: unlimited
  | Maximum stacksize for task 362: unlimited
  | Maximum stacksize for task 363: unlimited
  | Maximum stacksize for task 364: unlimited
  | Maximum stacksize for task 365: unlimited
  | Maximum stacksize for task 366: unlimited
  | Maximum stacksize for task 367: unlimited
  | Maximum stacksize for task 368: unlimited
  | Maximum stacksize for task 369: unlimited
  | Maximum stacksize for task 370: unlimited
  | Maximum stacksize for task 371: unlimited
  | Maximum stacksize for task 372: unlimited
  | Maximum stacksize for task 373: unlimited
  | Maximum stacksize for task 374: unlimited
  | Maximum stacksize for task 375: unlimited
  | Maximum stacksize for task 376: unlimited
  | Maximum stacksize for task 377: unlimited
  | Maximum stacksize for task 378: unlimited
  | Maximum stacksize for task 379: unlimited
  | Maximum stacksize for task 380: unlimited
  | Maximum stacksize for task 381: unlimited
  | Maximum stacksize for task 382: unlimited
  | Maximum stacksize for task 383: unlimited
  | Maximum stacksize for task 384: unlimited
  | Maximum stacksize for task 385: unlimited
  | Maximum stacksize for task 386: unlimited
  | Maximum stacksize for task 387: unlimited
  | Maximum stacksize for task 388: unlimited
  | Maximum stacksize for task 389: unlimited
  | Maximum stacksize for task 390: unlimited
  | Maximum stacksize for task 391: unlimited
  | Maximum stacksize for task 392: unlimited
  | Maximum stacksize for task 393: unlimited
  | Maximum stacksize for task 394: unlimited
  | Maximum stacksize for task 395: unlimited
  | Maximum stacksize for task 396: unlimited
  | Maximum stacksize for task 397: unlimited
  | Maximum stacksize for task 398: unlimited
  | Maximum stacksize for task 399: unlimited
  | Maximum stacksize for task 400: unlimited
  | Maximum stacksize for task 401: unlimited
  | Maximum stacksize for task 402: unlimited
  | Maximum stacksize for task 403: unlimited
  | Maximum stacksize for task 404: unlimited
  | Maximum stacksize for task 405: unlimited
  | Maximum stacksize for task 406: unlimited
  | Maximum stacksize for task 407: unlimited
  | Maximum stacksize for task 408: unlimited
  | Maximum stacksize for task 409: unlimited
  | Maximum stacksize for task 410: unlimited
  | Maximum stacksize for task 411: unlimited
  | Maximum stacksize for task 412: unlimited
  | Maximum stacksize for task 413: unlimited
  | Maximum stacksize for task 414: unlimited
  | Maximum stacksize for task 415: unlimited
  | Maximum stacksize for task 416: unlimited
  | Maximum stacksize for task 417: unlimited
  | Maximum stacksize for task 418: unlimited
  | Maximum stacksize for task 419: unlimited
  | Maximum stacksize for task 420: unlimited
  | Maximum stacksize for task 421: unlimited
  | Maximum stacksize for task 422: unlimited
  | Maximum stacksize for task 423: unlimited
  | Maximum stacksize for task 424: unlimited
  | Maximum stacksize for task 425: unlimited
  | Maximum stacksize for task 426: unlimited
  | Maximum stacksize for task 427: unlimited
  | Maximum stacksize for task 428: unlimited
  | Maximum stacksize for task 429: unlimited
  | Maximum stacksize for task 430: unlimited
  | Maximum stacksize for task 431: unlimited
  | Maximum stacksize for task 432: unlimited
  | Maximum stacksize for task 433: unlimited
  | Maximum stacksize for task 434: unlimited
  | Maximum stacksize for task 435: unlimited
  | Maximum stacksize for task 436: unlimited
  | Maximum stacksize for task 437: unlimited
  | Maximum stacksize for task 438: unlimited
  | Maximum stacksize for task 439: unlimited
  | Maximum stacksize for task 440: unlimited
  | Maximum stacksize for task 441: unlimited
  | Maximum stacksize for task 442: unlimited
  | Maximum stacksize for task 443: unlimited
  | Maximum stacksize for task 444: unlimited
  | Maximum stacksize for task 445: unlimited
  | Maximum stacksize for task 446: unlimited
  | Maximum stacksize for task 447: unlimited
  | Maximum stacksize for task 448: unlimited
  | Maximum stacksize for task 449: unlimited
  | Maximum stacksize for task 450: unlimited
  | Maximum stacksize for task 451: unlimited
  | Maximum stacksize for task 452: unlimited
  | Maximum stacksize for task 453: unlimited
  | Maximum stacksize for task 454: unlimited
  | Maximum stacksize for task 455: unlimited
  | Maximum stacksize for task 456: unlimited
  | Maximum stacksize for task 457: unlimited
  | Maximum stacksize for task 458: unlimited
  | Maximum stacksize for task 459: unlimited
  | Maximum stacksize for task 460: unlimited
  | Maximum stacksize for task 461: unlimited
  | Maximum stacksize for task 462: unlimited
  | Maximum stacksize for task 463: unlimited
  | Maximum stacksize for task 464: unlimited
  | Maximum stacksize for task 465: unlimited
  | Maximum stacksize for task 466: unlimited
  | Maximum stacksize for task 467: unlimited
  | Maximum stacksize for task 468: unlimited
  | Maximum stacksize for task 469: unlimited
  | Maximum stacksize for task 470: unlimited
  | Maximum stacksize for task 471: unlimited
  | Maximum stacksize for task 472: unlimited
  | Maximum stacksize for task 473: unlimited
  | Maximum stacksize for task 474: unlimited
  | Maximum stacksize for task 475: unlimited
  | Maximum stacksize for task 476: unlimited
  | Maximum stacksize for task 477: unlimited
  | Maximum stacksize for task 478: unlimited
  | Maximum stacksize for task 479: unlimited
  | Maximum stacksize for task 480: unlimited
  | Maximum stacksize for task 481: unlimited
  | Maximum stacksize for task 482: unlimited
  | Maximum stacksize for task 483: unlimited
  | Maximum stacksize for task 484: unlimited
  | Maximum stacksize for task 485: unlimited
  | Maximum stacksize for task 486: unlimited
  | Maximum stacksize for task 487: unlimited
  | Maximum stacksize for task 488: unlimited
  | Maximum stacksize for task 489: unlimited
  | Maximum stacksize for task 490: unlimited
  | Maximum stacksize for task 491: unlimited
  | Maximum stacksize for task 492: unlimited
  | Maximum stacksize for task 493: unlimited
  | Maximum stacksize for task 494: unlimited
  | Maximum stacksize for task 495: unlimited
  | Maximum stacksize for task 496: unlimited
  | Maximum stacksize for task 497: unlimited
  | Maximum stacksize for task 498: unlimited
  | Maximum stacksize for task 499: unlimited
  | Maximum stacksize for task 500: unlimited
  | Maximum stacksize for task 501: unlimited
  | Maximum stacksize for task 502: unlimited
  | Maximum stacksize for task 503: unlimited
  | Maximum stacksize for task 504: unlimited
  | Maximum stacksize for task 505: unlimited
  | Maximum stacksize for task 506: unlimited
  | Maximum stacksize for task 507: unlimited
  | Maximum stacksize for task 508: unlimited
  | Maximum stacksize for task 509: unlimited
  | Maximum stacksize for task 510: unlimited
  | Maximum stacksize for task 511: unlimited
  | Current stacksize for task 0: unlimited
  | Current stacksize for task 1: unlimited
  | Current stacksize for task 2: unlimited
  | Current stacksize for task 3: unlimited
  | Current stacksize for task 4: unlimited
  | Current stacksize for task 5: unlimited
  | Current stacksize for task 6: unlimited
  | Current stacksize for task 7: unlimited
  | Current stacksize for task 8: unlimited
  | Current stacksize for task 9: unlimited
  | Current stacksize for task 10: unlimited
  | Current stacksize for task 11: unlimited
  | Current stacksize for task 12: unlimited
  | Current stacksize for task 13: unlimited
  | Current stacksize for task 14: unlimited
  | Current stacksize for task 15: unlimited
  | Current stacksize for task 16: unlimited
  | Current stacksize for task 17: unlimited
  | Current stacksize for task 18: unlimited
  | Current stacksize for task 19: unlimited
  | Current stacksize for task 20: unlimited
  | Current stacksize for task 21: unlimited
  | Current stacksize for task 22: unlimited
  | Current stacksize for task 23: unlimited
  | Current stacksize for task 24: unlimited
  | Current stacksize for task 25: unlimited
  | Current stacksize for task 26: unlimited
  | Current stacksize for task 27: unlimited
  | Current stacksize for task 28: unlimited
  | Current stacksize for task 29: unlimited
  | Current stacksize for task 30: unlimited
  | Current stacksize for task 31: unlimited
  | Current stacksize for task 32: unlimited
  | Current stacksize for task 33: unlimited
  | Current stacksize for task 34: unlimited
  | Current stacksize for task 35: unlimited
  | Current stacksize for task 36: unlimited
  | Current stacksize for task 37: unlimited
  | Current stacksize for task 38: unlimited
  | Current stacksize for task 39: unlimited
  | Current stacksize for task 40: unlimited
  | Current stacksize for task 41: unlimited
  | Current stacksize for task 42: unlimited
  | Current stacksize for task 43: unlimited
  | Current stacksize for task 44: unlimited
  | Current stacksize for task 45: unlimited
  | Current stacksize for task 46: unlimited
  | Current stacksize for task 47: unlimited
  | Current stacksize for task 48: unlimited
  | Current stacksize for task 49: unlimited
  | Current stacksize for task 50: unlimited
  | Current stacksize for task 51: unlimited
  | Current stacksize for task 52: unlimited
  | Current stacksize for task 53: unlimited
  | Current stacksize for task 54: unlimited
  | Current stacksize for task 55: unlimited
  | Current stacksize for task 56: unlimited
  | Current stacksize for task 57: unlimited
  | Current stacksize for task 58: unlimited
  | Current stacksize for task 59: unlimited
  | Current stacksize for task 60: unlimited
  | Current stacksize for task 61: unlimited
  | Current stacksize for task 62: unlimited
  | Current stacksize for task 63: unlimited
  | Current stacksize for task 64: unlimited
  | Current stacksize for task 65: unlimited
  | Current stacksize for task 66: unlimited
  | Current stacksize for task 67: unlimited
  | Current stacksize for task 68: unlimited
  | Current stacksize for task 69: unlimited
  | Current stacksize for task 70: unlimited
  | Current stacksize for task 71: unlimited
  | Current stacksize for task 72: unlimited
  | Current stacksize for task 73: unlimited
  | Current stacksize for task 74: unlimited
  | Current stacksize for task 75: unlimited
  | Current stacksize for task 76: unlimited
  | Current stacksize for task 77: unlimited
  | Current stacksize for task 78: unlimited
  | Current stacksize for task 79: unlimited
  | Current stacksize for task 80: unlimited
  | Current stacksize for task 81: unlimited
  | Current stacksize for task 82: unlimited
  | Current stacksize for task 83: unlimited
  | Current stacksize for task 84: unlimited
  | Current stacksize for task 85: unlimited
  | Current stacksize for task 86: unlimited
  | Current stacksize for task 87: unlimited
  | Current stacksize for task 88: unlimited
  | Current stacksize for task 89: unlimited
  | Current stacksize for task 90: unlimited
  | Current stacksize for task 91: unlimited
  | Current stacksize for task 92: unlimited
  | Current stacksize for task 93: unlimited
  | Current stacksize for task 94: unlimited
  | Current stacksize for task 95: unlimited
  | Current stacksize for task 96: unlimited
  | Current stacksize for task 97: unlimited
  | Current stacksize for task 98: unlimited
  | Current stacksize for task 99: unlimited
  | Current stacksize for task 100: unlimited
  | Current stacksize for task 101: unlimited
  | Current stacksize for task 102: unlimited
  | Current stacksize for task 103: unlimited
  | Current stacksize for task 104: unlimited
  | Current stacksize for task 105: unlimited
  | Current stacksize for task 106: unlimited
  | Current stacksize for task 107: unlimited
  | Current stacksize for task 108: unlimited
  | Current stacksize for task 109: unlimited
  | Current stacksize for task 110: unlimited
  | Current stacksize for task 111: unlimited
  | Current stacksize for task 112: unlimited
  | Current stacksize for task 113: unlimited
  | Current stacksize for task 114: unlimited
  | Current stacksize for task 115: unlimited
  | Current stacksize for task 116: unlimited
  | Current stacksize for task 117: unlimited
  | Current stacksize for task 118: unlimited
  | Current stacksize for task 119: unlimited
  | Current stacksize for task 120: unlimited
  | Current stacksize for task 121: unlimited
  | Current stacksize for task 122: unlimited
  | Current stacksize for task 123: unlimited
  | Current stacksize for task 124: unlimited
  | Current stacksize for task 125: unlimited
  | Current stacksize for task 126: unlimited
  | Current stacksize for task 127: unlimited
  | Current stacksize for task 128: unlimited
  | Current stacksize for task 129: unlimited
  | Current stacksize for task 130: unlimited
  | Current stacksize for task 131: unlimited
  | Current stacksize for task 132: unlimited
  | Current stacksize for task 133: unlimited
  | Current stacksize for task 134: unlimited
  | Current stacksize for task 135: unlimited
  | Current stacksize for task 136: unlimited
  | Current stacksize for task 137: unlimited
  | Current stacksize for task 138: unlimited
  | Current stacksize for task 139: unlimited
  | Current stacksize for task 140: unlimited
  | Current stacksize for task 141: unlimited
  | Current stacksize for task 142: unlimited
  | Current stacksize for task 143: unlimited
  | Current stacksize for task 144: unlimited
  | Current stacksize for task 145: unlimited
  | Current stacksize for task 146: unlimited
  | Current stacksize for task 147: unlimited
  | Current stacksize for task 148: unlimited
  | Current stacksize for task 149: unlimited
  | Current stacksize for task 150: unlimited
  | Current stacksize for task 151: unlimited
  | Current stacksize for task 152: unlimited
  | Current stacksize for task 153: unlimited
  | Current stacksize for task 154: unlimited
  | Current stacksize for task 155: unlimited
  | Current stacksize for task 156: unlimited
  | Current stacksize for task 157: unlimited
  | Current stacksize for task 158: unlimited
  | Current stacksize for task 159: unlimited
  | Current stacksize for task 160: unlimited
  | Current stacksize for task 161: unlimited
  | Current stacksize for task 162: unlimited
  | Current stacksize for task 163: unlimited
  | Current stacksize for task 164: unlimited
  | Current stacksize for task 165: unlimited
  | Current stacksize for task 166: unlimited
  | Current stacksize for task 167: unlimited
  | Current stacksize for task 168: unlimited
  | Current stacksize for task 169: unlimited
  | Current stacksize for task 170: unlimited
  | Current stacksize for task 171: unlimited
  | Current stacksize for task 172: unlimited
  | Current stacksize for task 173: unlimited
  | Current stacksize for task 174: unlimited
  | Current stacksize for task 175: unlimited
  | Current stacksize for task 176: unlimited
  | Current stacksize for task 177: unlimited
  | Current stacksize for task 178: unlimited
  | Current stacksize for task 179: unlimited
  | Current stacksize for task 180: unlimited
  | Current stacksize for task 181: unlimited
  | Current stacksize for task 182: unlimited
  | Current stacksize for task 183: unlimited
  | Current stacksize for task 184: unlimited
  | Current stacksize for task 185: unlimited
  | Current stacksize for task 186: unlimited
  | Current stacksize for task 187: unlimited
  | Current stacksize for task 188: unlimited
  | Current stacksize for task 189: unlimited
  | Current stacksize for task 190: unlimited
  | Current stacksize for task 191: unlimited
  | Current stacksize for task 192: unlimited
  | Current stacksize for task 193: unlimited
  | Current stacksize for task 194: unlimited
  | Current stacksize for task 195: unlimited
  | Current stacksize for task 196: unlimited
  | Current stacksize for task 197: unlimited
  | Current stacksize for task 198: unlimited
  | Current stacksize for task 199: unlimited
  | Current stacksize for task 200: unlimited
  | Current stacksize for task 201: unlimited
  | Current stacksize for task 202: unlimited
  | Current stacksize for task 203: unlimited
  | Current stacksize for task 204: unlimited
  | Current stacksize for task 205: unlimited
  | Current stacksize for task 206: unlimited
  | Current stacksize for task 207: unlimited
  | Current stacksize for task 208: unlimited
  | Current stacksize for task 209: unlimited
  | Current stacksize for task 210: unlimited
  | Current stacksize for task 211: unlimited
[...]
  |              Analytical stress tensor - Symmetrized               |
  |                  Cartesian components [eV/A**3]                   |
  +-------------------------------------------------------------------+
  |                x                y                z                |
  |                                                                   |
  |  x        -0.00003901      -0.00000001       0.00000000           |
  |  y        -0.00000001      -0.00002899       0.00000000           |
  |  z         0.00000000       0.00000000      -0.00005471           |
  |                                                                   |
  |  Pressure:       0.00004090   [eV/A**3]                           |
  |                                                                   |
  +-------------------------------------------------------------------+

 * Warning: Stress tensor is anisotropic. Be aware that pressure is an isotropic quantity.


  Self-consistency convergence accuracy:
  | Change of charge density      :  0.1391E-07
  | Change of unmixed KS density  :  0.2183E-07
  | Change of sum of eigenvalues  :  0.9882E-07 eV
  | Change of total energy        : -0.3960E-09 eV
  | Change of forces              :  0.2241E-07 eV/A

  Writing Kohn-Sham eigenvalues.
  K-point:       1 at    0.000000    0.000000    0.000000 (in units of recip. lattice)

  State    Occupation    Eigenvalue [Ha]    Eigenvalue [eV]
      1       2.00000        -668.324732       -18186.04125
      2       2.00000        -668.324732       -18186.04124
      3       2.00000         -91.087287        -2478.61119
      4       2.00000         -91.087287        -2478.61119
      5       2.00000         -81.228217        -2210.33224
      6       2.00000         -81.228216        -2210.33223
      7       2.00000         -81.227797        -2210.32083
      8       2.00000         -81.227797        -2210.32083
      9       2.00000         -81.227797        -2210.32083
     10       2.00000         -81.227797        -2210.32083
     11       2.00000         -14.922990         -406.07523
     12       2.00000         -14.922990         -406.07523
     13       2.00000         -11.727256         -319.11486
     14       2.00000         -11.727254         -319.11483
     15       2.00000         -11.726097         -319.08334
     16       2.00000         -11.726097         -319.08334
     17       2.00000         -11.726097         -319.08333
     18       2.00000         -11.726097         -319.08333
     19       2.00000          -6.483575         -176.42706
     20       2.00000          -6.483575         -176.42706
     21       2.00000          -6.483575         -176.42706
     22       2.00000          -6.483575         -176.42706
     23       2.00000          -6.483498         -176.42495
     24       2.00000          -6.483497         -176.42494
     25       2.00000          -6.482588         -176.40018
     26       2.00000          -6.482588         -176.40018
     27       2.00000          -6.482588         -176.40018
     28       2.00000          -6.482588         -176.40018
     29       2.00000          -2.070662          -56.34559
     30       2.00000          -2.064174          -56.16904
     31       2.00000          -1.284641          -34.95685
     32       2.00000          -1.248434          -33.97163
     33       2.00000          -1.248434          -33.97162
     34       2.00000          -1.243290          -33.83164
     35       2.00000          -1.242801          -33.81834
     36       2.00000          -1.242801          -33.81834
     37       2.00000          -0.492092          -13.39050
     38       2.00000          -0.397241          -10.80948
     39       0.00000          -0.249650           -6.79331
     40       0.00000          -0.249649           -6.79329
     41       0.00000          -0.246732           -6.71392
     42       0.00000          -0.234369           -6.37752
     43       0.00000          -0.223538           -6.08279
     44       0.00000          -0.223538           -6.08278
     45       0.00000          -0.198994           -5.41490
     46       0.00000          -0.198989           -5.41476
     47       0.00000          -0.111538           -3.03510
     48       0.00000          -0.111531           -3.03491
     49       0.00000           0.069824            1.90000
     50       0.00000           0.169084            4.60100
     51       0.00000           0.222611            6.05756

  What follows are estimated values for band gap, HOMO, LUMO, etc.
  | They are estimated on a discrete k-point grid and not necessarily exact.
  | For converged numbers, create a DOS and/or band structure plot on a denser k-grid.

  Highest occupied state (VBM) at     -7.66480575 eV (relative to internal zero)
  | Occupation number:      1.01556148
  | K-point:     724 at    0.312500    0.312500    0.500000 (in units of recip. lattice)

  Lowest unoccupied state (CBM) at    -7.66326385 eV (relative to internal zero)
  | Occupation number:      0.98076751
  | K-point:     940 at    0.375000    0.812500    0.500000 (in units of recip. lattice)

  ESTIMATED overall HOMO-LUMO gap:      0.00154189 eV between HOMO at k-point 724 and LUMO at k-point 940
  | This appears to be an indirect band gap.
  | Smallest direct gap :      0.09743323 eV for k_point 1335 at    0.687500    0.687500    0.583333 (in units of recip. lattice)
  However, this system has fractional occupation numbers. Since we use a finite k-point grid,
  this material is metallic within the approximate finite broadening function (occupation_type)
  applied to determine the occupation numbers.

  | Chemical Potential                          :    -7.66411615 eV
  | Note that, for insulating systems, the printed 'chemical potential' value is not uniquely defined.
  | It can be anywhere in the energy gap, as long as it correctly separates occupied and unoccupied states.
  | In systems with a gap, the physically relevant chemical potential is the VBM or HOMO.

  Self-consistency cycle converged.


------------------------------------------------------------
  End self-consistency iteration #    10       :  max(cpu_time)    wall_clock(cpu1)
  | Time for this iteration                     :        1.998 s           1.982 s
  | Charge density & force component update     :        1.763 s           1.763 s
  | Density mixing                              :        0.021 s           0.004 s
  | Hartree multipole update                    :        0.001 s           0.002 s
  | Hartree multipole summation                 :        0.064 s           0.064 s
  | Hartree pot. SCF incomplete forces          :        0.044 s           0.044 s
  | Integration                                 :        0.054 s           0.053 s
  | Solution of K.-S. eqns.                     :        0.048 s           0.047 s
  | Total energy evaluation                     :        0.002 s           0.002 s

  Partial memory accounting:
  | Current value for overall tracked memory usage:
  |   Minimum:        5.408 MB (on task   0)
  |   Maximum:        5.560 MB (on task   1)
  |   Average:        5.409 MB
  | Peak value for overall tracked memory usage:
  |   Minimum:       33.523 MB (on task 142 after allocating d_wave)
  |   Maximum:       41.696 MB (on task  57 after allocating d_wave)
  |   Average:       38.781 MB
  | Largest tracked array allocation so far:
  |   Minimum:        8.751 MB (density_matrix_con on task 142)
  |   Maximum:       13.233 MB (density_matrix_con on task  57)
  |   Average:       11.525 MB
  Note:  These values currently only include a subset of arrays which are explicitly tracked.
  The "true" memory usage will be greater.
------------------------------------------------------------

  Energy and forces in a compact form:
  | Total energy uncorrected      :         -0.197453110828099E+06 eV
  | Total energy corrected        :         -0.197453111998206E+06 eV  <-- do not rely on this value for anything but (periodic) metals
  | Electronic free energy        :         -0.197453113168313E+06 eV
  Total atomic forces (unitary forces cleaned) [eV/Ang]:
  |    1          0.733773449920657E-06          0.784092713231322E-04          0.398536411245395E-06
  |    2         -0.733773449920657E-06         -0.784092713231322E-04         -0.398536411245395E-06

  ------------------------------------ 
  Start decomposition of the XC Energy 
  ------------------------------------ 
  X and C from original XC functional choice 
  Hartree-Fock Energy :          0.000000000 Ha              0.000000000 eV
  X Energy            :       -220.524001832 Ha          -6000.763405329 eV
  C Energy            :         -4.650709012 Ha           -126.552231115 eV
  XC Energy w/o HF    :       -225.174710844 Ha          -6127.315636445 eV
  Total XC Energy     :       -225.174710844 Ha          -6127.315636445 eV
  ------------------------------------ 
  LDA X and C from self-consistent density 
  X Energy LDA        :       -213.964890882 Ha          -5822.280915285 eV
  C Energy LDA        :         -7.376745603 Ha           -200.731460948 eV
  ------------------------------------ 
  End decomposition of the XC Energy 
  ------------------------------------ 

------------------------------------------------------------
  Relaxation / MD: End force evaluation.       :  max(cpu_time)    wall_clock(cpu1)
  | Time for this force evaluation              :        4.441 s           4.587 s

------------------------------------------------------------
  Geometry optimization: Attempting to predict improved coordinates.

  +-------------------------------------------------------------------+
  | Generalized derivatives on lattice vectors [eV/A]                 |
  +-------------------------------------------------------------------+
  |lattice_vector      -0.00054986       0.00023582      -0.00000000  |
  |lattice_vector      -0.00054995      -0.00023598       0.00000000  |
  |lattice_vector       0.00000000       0.00000000      -0.00048038  |
  +-------------------------------------------------------------------+
  | Forces on lattice vectors cleaned from atomic contributions [eV/A]|
  +-------------------------------------------------------------------+
  |lattice_vector       0.00054986      -0.00023582       0.00000000  |
  |lattice_vector       0.00054995       0.00023598      -0.00000000  |
  |lattice_vector      -0.00000000      -0.00000000       0.00048038  |
  +-------------------------------------------------------------------+
  Symmetrized total atomic cartesian forces [eV/Ang]:
  |   1     0.0000000000E+00     0.0000000000E+00     0.0000000000E+00
  |   2     0.0000000000E+00     0.0000000000E+00     0.0000000000E+00
  +-------------------------------------------------------------------+
  | Symmetrized forces on lattice vectors cleaned from symmetrized
  | atomic contributions [eV/A]|
  +-------------------------------------------------------------------+
  |lattice_vector       0.00023963      -0.00041504       0.00000000  |
  |lattice_vector       0.00023963       0.00041504       0.00000000  |
  |lattice_vector       0.00000000       0.00000000       0.00048038  |
  +-------------------------------------------------------------------+
  Net remaining forces (excluding translations, rotations) in present geometry:
  || Forces on atoms   || =   0.000000E+00 eV/A.
  || Forces on lattice || =   0.480381E-03 eV/A^3.
  Maximum force component is  0.480381E-03 eV/A.
  Present geometry is converged.

  | lattice  1          0.318429677721440E+01
  | lattice  2          0.511109431423621E+01
  Symmetry-reduced forces:
  | lattice  1          0.958502056315382E-03
  | lattice  2          0.480380753263294E-03
------------------------------------------------------------
  Final atomic structure:
                         x [A]             y [A]             z [A]
  lattice_vector         1.59214839       -2.75768062        0.00000000
  lattice_vector         1.59214839        2.75768062        0.00000000
  lattice_vector         0.00000000        0.00000000        5.11109431

            atom        -0.00000000       -1.83845191        1.27777358  Zr
            atom        -0.00000000        1.83845191       -1.27777358  Zr

  Fractional coordinates:
                         L1                L2                L3
       atom_frac         0.33333300       -0.33333300        0.25000000  Zr
       atom_frac        -0.33333300        0.33333300       -0.25000000  Zr
------------------------------------------------------------

------------------------------------------------------------------------------
  Final output of selected total energy values:

  The following output summarizes some interesting total energy values
  at the end of a run (AFTER all relaxation, molecular dynamics, etc.).

  | Total energy of the DFT / Hartree-Fock s.c.f. calculation      :        -197453.110828099 eV
  | Final zero-broadening corrected energy (caution - metals only) :        -197453.111998206 eV
  | For reference only, the value of 1 Hartree used in FHI-aims is :             27.211384500 eV
  | For reference only, the overall average (free atom contribution
  | + realspace contribution) of the electrostatic potential after
  | s.c.f. convergence is                                          :            -24.452316969 eV

  Before relying on these values, please be sure to understand exactly which
  total energy value is referred to by a given number. Different objects may
  all carry the same name 'total energy'. Definitions:

  Total energy of the DFT / Hartree-Fock s.c.f. calculation:
  | Note that this energy does not include ANY quantities calculated after the
  | s.c.f. cycle, in particular not ANY RPA, MP2, etc. many-body perturbation terms.

  Final zero-broadening corrected energy:
  | For metallic systems only, a broadening of the occupation numbers at the Fermi
  | level can be extrapolated back to zero broadening by an electron-gas inspired
  | formula. For all systems that are not real metals, this value can be
  | meaningless and should be avoided.

------------------------------------------------------------------------------
  Methods described in the following list of references were used in this FHI-aims run.
  If you publish the results, please make sure to cite these reference if they apply.
  FHI-aims is an academic code, and for our developers (often, Ph.D. students
  and postdocs), scientific credit in the community is essential.
  Thank you for helping us!

  For any use of FHI-aims, please cite:

    Volker Blum, Ralf Gehrke, Felix Hanke, Paula Havu, Ville Havu,
    Xinguo Ren, Karsten Reuter, and Matthias Scheffler
    'Ab initio molecular simulations with numeric atom-centered orbitals'
    Computer Physics Communications 180, 2175-2196 (2009)
    http://doi.org/10.1016/j.cpc.2009.06.022


  For the analytical stress tensor used in your run, please cite:

    Franz Knuth, Christian Carbogno, Viktor Atalla, Volker Blum, Matthias Scheffler
    'All-electron formalism for total energy strain derivatives and
    stress tensor components for numeric atom-centered orbitals'
    Computer Physics Communications 190, 33-50 (2015).
    http://doi.org/10.1016/j.cpc.2015.01.003


  For the parametric geometry constraints, please cite:

    Maja-Olivia Lenz, Thomas A. R. Purcell, David Hicks,
    Stefano Curtarolo, Matthias Scheffler, Christian Carbogno
    'Parametrically constrained geometry relaxations for high-throughput materials science'
    npj Computational Materials 5, 123 (2019).
    http://doi.org/10.1038/s41524-019-0254-4


  The provided symmetry information was generated with SPGlib:

    Atsushi Togo, Yusuke Seto, Dimitar Pashov
    SPGlib 1.7.3 obtained from http://spglib.sourceforge.net
    Copyright (C) 2008 Atsushi Togo


  The ELSI infrastructure was used in your run to solve the Kohn-Sham electronic structure.
  Please check out http://elsi-interchange.org to learn more.
  If scalability is important for your project, please acknowledge ELSI by citing:

    V. W-z. Yu, F. Corsetti, A. Garcia, W. P. Huhn, M. Jacquelin, W. Jia,
    B. Lange, L. Lin, J. Lu, W. Mi, A. Seifitokaldani, A. Vazquez-Mayagoitia,
    C. Yang, H. Yang, and V. Blum
    'ELSI: A unified software interface for Kohn-Sham electronic structure solvers'
    Computer Physics Communications 222, 267-285 (2018).
    http://doi.org/10.1016/j.cpc.2017.09.007


  For the real-space grid partitioning and parallelization used in this calculation, please cite:

    Ville Havu, Volker Blum, Paula Havu, and Matthias Scheffler,
    'Efficient O(N) integration for all-electron electronic structure calculation'
    'using numerically tabulated basis functions'
    Journal of Computational Physics 228, 8367-8379 (2009).
    http://doi.org/10.1016/j.jcp.2009.08.008

  Of course, there are many other important community references, e.g., those cited in the
  above references. Our list is limited to references that describe implementations in the
  FHI-aims code. The reason is purely practical (length of this list) - please credit others as well.

------------------------------------------------------------
          Leaving FHI-aims.
          Date     :  20220728, Time     :  121725.390

          Computational steps:
          | Number of self-consistency cycles          :          197
          | Number of SCF (re)initializations          :           10
          | Number of relaxation steps                 :            9

          Detailed time accounting                     :  max(cpu_time)    wall_clock(cpu1)
          | Total time                                  :       86.058 s          86.823 s
          | Preparation time                            :        0.594 s           0.595 s
          | Boundary condition initalization            :        1.236 s           1.230 s
          | Grid partitioning                           :        0.182 s           0.181 s
          | Preloading free-atom quantities on grid     :        0.094 s           0.095 s
          | Free-atom superposition energy              :        0.009 s           0.010 s
          | Total time for integrations                 :       10.493 s          10.487 s
          | Total time for solution of K.-S. equations  :        9.808 s           9.787 s
          | Total time for EV reorthonormalization      :        0.056 s           0.045 s
          | Total time for density & force components   :       45.983 s          45.980 s
          | Total time for mixing & preconditioning     :        5.325 s           2.122 s
          | Total time for Hartree multipole update     :        0.265 s           0.275 s
          | Total time for Hartree multipole sum        :        5.187 s           5.194 s
          | Total time for total energy evaluation      :        0.404 s           0.397 s
          | Total time NSC force correction             :        1.386 s           1.385 s
          | Total time for scaled ZORA corrections      :        0.000 s           0.000 s

          Partial memory accounting:
          | Residual value for overall tracked memory usage across tasks:     0.000000 MB (should be 0.000000 MB)
          | Peak values for overall tracked memory usage:
          |   Minimum:       33.523 MB (on task 142 after allocating d_wave)
          |   Maximum:       41.696 MB (on task  57 after allocating d_wave)
          |   Average:       38.781 MB
          | Largest tracked array allocation:
          |   Minimum:        8.751 MB (density_matrix_con on task 142)
          |   Maximum:       13.233 MB (density_matrix_con on task  57)
          |   Average:       11.525 MB
          Note:  These values currently only include a subset of arrays which are explicitly tracked.
          The "true" memory usage will be greater.

          Have a nice day.
------------------------------------------------------------
