------------------------------------------------------------
          Invoking FHI-aims ...

          When using FHI-aims, please cite the following reference:

            Volker Blum, Ralf Gehrke, Felix Hanke, Paula Havu,
            Ville Havu, Xinguo Ren, Karsten Reuter, and Matthias Scheffler,
            'Ab Initio Molecular Simulations with Numeric Atom-Centered Orbitals',
            Computer Physics Communications 180, 2175-2196 (2009)

          In addition, many other developments in FHI-aims are likely important for
          your particular application. A partial list of references is given at the end of
          this file. Thank you for giving credit to the authors of these developments.

          For any questions about FHI-aims, please visit our slack channel at

            https://fhi-aims.slack.com

          and our main development and support site at

            https://aims-git.rz-berlin.mpg.de .

          The latter site, in particular, has a wiki to collect information, as well
          as an issue tracker to log discussions, suggest improvements, and report issues
          or bugs. https://aims-git.rz-berlin.mpg.de is also the main development site
          of the project and all new and updated code versions can be obtained there.
          Please send an email to aims-coordinators@fhi-berlin.mpg.de and we will add
          you to these sites. They are for you and everyone is welcome there.

------------------------------------------------------------



  Date     :  20220718, Time     :  171352.918
  Time zero on CPU 1             :   0.448252000000000E+00  s.
  Internal wall clock time zero  :           427396432.918  s.

  FHI-aims created a unique identifier for this run for later identification
  aims_uuid : 4E64D123-7FDD-414B-A556-87A698A5BA4F

  Build configuration of the current instance of FHI-aims
  -------------------------------------------------------
  FHI-aims version      : 220619
  Commit number         : 375d76c9a
  CMake host system     : Linux-4.12.14-197.78_9.1.64-cray_shasta_c
  CMake version         : 3.22.1
  Fortran compiler      : /opt/cray/pe/craype/2.7.6/bin/ftn (GNU) version 10.2.0
  Fortran compiler flags: -O2 -fallow-argument-mismatch -ffree-line-length-none
  C compiler            : /opt/cray/pe/craype/2.7.6/bin/cc (GNU) version 10.2.0
  C compiler flags      : -O2
  Using MPI
  Using ScaLAPACK
  Using LibXC
  Using i-PI
  Using RLSY
  Linking against:

  Using      128 parallel tasks.
  Task        0 on host nid001673 reporting.
  Task        1 on host nid001673 reporting.
  Task        2 on host nid001673 reporting.
  Task        3 on host nid001673 reporting.
  Task        4 on host nid001673 reporting.
  Task        5 on host nid001673 reporting.
  Task        6 on host nid001673 reporting.
  Task        7 on host nid001673 reporting.
  Task        8 on host nid001673 reporting.
  Task        9 on host nid001673 reporting.
  Task       10 on host nid001673 reporting.
  Task       11 on host nid001673 reporting.
  Task       12 on host nid001673 reporting.
  Task       13 on host nid001673 reporting.
  Task       14 on host nid001673 reporting.
  Task       15 on host nid001673 reporting.
  Task       16 on host nid001683 reporting.
  Task       17 on host nid001683 reporting.
  Task       18 on host nid001683 reporting.
  Task       19 on host nid001683 reporting.
  Task       20 on host nid001683 reporting.
  Task       21 on host nid001683 reporting.
  Task       22 on host nid001683 reporting.
  Task       23 on host nid001683 reporting.
  Task       24 on host nid001683 reporting.
  Task       25 on host nid001683 reporting.
  Task       26 on host nid001683 reporting.
  Task       27 on host nid001683 reporting.
  Task       28 on host nid001683 reporting.
  Task       29 on host nid001683 reporting.
  Task       30 on host nid001683 reporting.
  Task       31 on host nid001683 reporting.
  Task       32 on host nid001685 reporting.
  Task       33 on host nid001685 reporting.
  Task       34 on host nid001685 reporting.
  Task       35 on host nid001685 reporting.
  Task       36 on host nid001685 reporting.
  Task       37 on host nid001685 reporting.
  Task       38 on host nid001685 reporting.
  Task       39 on host nid001685 reporting.
  Task       40 on host nid001685 reporting.
  Task       41 on host nid001685 reporting.
  Task       42 on host nid001685 reporting.
  Task       43 on host nid001685 reporting.
  Task       44 on host nid001685 reporting.
  Task       45 on host nid001685 reporting.
  Task       46 on host nid001685 reporting.
  Task       47 on host nid001685 reporting.
  Task       48 on host nid005671 reporting.
  Task       49 on host nid005671 reporting.
  Task       50 on host nid005671 reporting.
  Task       51 on host nid005671 reporting.
  Task       52 on host nid005671 reporting.
  Task       53 on host nid005671 reporting.
  Task       54 on host nid005671 reporting.
  Task       55 on host nid005671 reporting.
  Task       56 on host nid005671 reporting.
  Task       57 on host nid005671 reporting.
  Task       58 on host nid005671 reporting.
  Task       59 on host nid005671 reporting.
  Task       60 on host nid005671 reporting.
  Task       61 on host nid005671 reporting.
  Task       62 on host nid005671 reporting.
  Task       63 on host nid005671 reporting.
  Task       64 on host nid005698 reporting.
  Task       65 on host nid005698 reporting.
  Task       66 on host nid005698 reporting.
  Task       67 on host nid005698 reporting.
  Task       68 on host nid005698 reporting.
  Task       69 on host nid005698 reporting.
  Task       70 on host nid005698 reporting.
  Task       71 on host nid005698 reporting.
  Task       72 on host nid005698 reporting.
  Task       73 on host nid005698 reporting.
  Task       74 on host nid005698 reporting.
  Task       75 on host nid005698 reporting.
  Task       76 on host nid005698 reporting.
  Task       77 on host nid005698 reporting.
  Task       78 on host nid005698 reporting.
  Task       79 on host nid005698 reporting.
  Task       80 on host nid005699 reporting.
  Task       81 on host nid005699 reporting.
  Task       82 on host nid005699 reporting.
  Task       83 on host nid005699 reporting.
  Task       84 on host nid005699 reporting.
  Task       85 on host nid005699 reporting.
  Task       86 on host nid005699 reporting.
  Task       87 on host nid005699 reporting.
  Task       88 on host nid005699 reporting.
  Task       89 on host nid005699 reporting.
  Task       90 on host nid005699 reporting.
  Task       91 on host nid005699 reporting.
  Task       92 on host nid005699 reporting.
  Task       93 on host nid005699 reporting.
  Task       94 on host nid005699 reporting.
  Task       95 on host nid005699 reporting.
  Task       96 on host nid005700 reporting.
  Task       97 on host nid005700 reporting.
  Task       98 on host nid005700 reporting.
  Task       99 on host nid005700 reporting.
  Task      100 on host nid005700 reporting.
  Task      101 on host nid005700 reporting.
  Task      102 on host nid005700 reporting.
  Task      103 on host nid005700 reporting.
  Task      104 on host nid005700 reporting.
  Task      105 on host nid005700 reporting.
  Task      106 on host nid005700 reporting.
  Task      107 on host nid005700 reporting.
  Task      108 on host nid005700 reporting.
  Task      109 on host nid005700 reporting.
  Task      110 on host nid005700 reporting.
  Task      111 on host nid005700 reporting.
  Task      112 on host nid005701 reporting.
  Task      113 on host nid005701 reporting.
  Task      114 on host nid005701 reporting.
  Task      115 on host nid005701 reporting.
  Task      116 on host nid005701 reporting.
  Task      117 on host nid005701 reporting.
  Task      118 on host nid005701 reporting.
  Task      119 on host nid005701 reporting.
  Task      120 on host nid005701 reporting.
  Task      121 on host nid005701 reporting.
  Task      122 on host nid005701 reporting.
  Task      123 on host nid005701 reporting.
  Task      124 on host nid005701 reporting.
  Task      125 on host nid005701 reporting.
  Task      126 on host nid005701 reporting.
  Task      127 on host nid005701 reporting.

  Performing system and environment tests:
  | Environment variable OMP_NUM_THREADS correctly set to 1.
  | Checking for ScaLAPACK...
  | Testing pdtran()...
  | All pdtran() tests passed.

  Obtaining array dimensions for all initial allocations:
  
  -----------------------------------------------------------------------
  Parsing control.in (first pass over file, find array dimensions only).
  The contents of control.in will be repeated verbatim below
  unless switched off by setting 'verbatim_writeout .false.' .
  in the first line of control.in .
  -----------------------------------------------------------------------
  
  xc               pbesol
  charge           0.
  spin             none
  relativistic atomic_zora scalar
  k_grid                16 16 12
  sc_accuracy_rho       1E-7
  sc_accuracy_forces    1E-6
  relax_geometry trm    5E-3
  relax_unit_cell       full
  ################################################################################
  #
  #  FHI-aims code project
  #  Volker Blum, Fritz Haber Institute Berlin, 2009
  #
  #  Suggested "tight" defaults for Ba atom (to be pasted into control.in file)
  #
  #  The onset of the cutoff pot'l WAS set to 8 A by default, because the neutral
  #  Ba atom is a large atom. However, this is very expensive. The radius should be
  #  much smaller in real-world situations, where Ba will be ionic. Please check
  #  and reduce the cutoff radius explicitly.
  #
  #  2015/11/12 : f and g functions from tier2 added to default basis set choice.
  #               These functions make a difference in the "delta test".
  #               Reduced the default cutoff radius to 6AA. The free-atom 6s function
  #               requires more. However, 6AA is already VERY expensive for
  #               any production calculations. In fact, revisit this choice for
  #               ionic systems to see if a smaller cutoff radius will do.
  #
  ################################################################################
    species          Ba
  #     global species definitions
      nucleus        56
      mass           137.327
  #
      l_hartree      6
  #
      cut_pot        6.0  2.0  1.0
      basis_dep_cutoff    1e-4
  #
      radial_base    65  7.0
      radial_multiplier  2
      angular_grids specified
        division   0.6752  110
        division   0.9746  194
        division   1.2241  302
        division   1.3850  434
  #      division   1.4734  590
  #      division   1.6010  770
  #      division   4.8366  974
  #      outer_grid  974
        outer_grid  434
  ################################################################################
  #
  #  Definition of "minimal" basis
  #
  ################################################################################
  #     valence basis states
      valence      6  s   2.
      valence      5  p   6.
      valence      4  d  10.
  #     ion occupancy
      ion_occ      6  s   1.
      ion_occ      5  p   6.
      ion_occ      4  d  10.
  ################################################################################
  #
  #  Suggested additional basis functions. For production calculations,
  #  uncomment them one after another (the most important basis functions are
  #  listed first).
  #
  #  Constructed for dimers: 2.65, 3.00, 3.50, 4.40, 5.50 Ang
  #
  ################################################################################
  #  "First tier" - improvements: -1277.43 meV to -9.16 meV
       ionic 5 d auto
       ionic 4 f auto
       hydro 3 p 2.7
       hydro 4 s 3.3
  #  "Second tier" - improvements: -64.04 (!) meV to -0.25 meV
       hydro 4 f 5.8
       hydro 5 g 7.4
  #     hydro 4 d 4.5
  #     hydro 6 h 11.2
  #     hydro 5 p 6.6
  #     hydro 2 s 3.2
  #  "Third tier" - max. impr. -1.16 meV, min. impr. -0.08 meV
  #     hydro 5 f 7.4
  #     hydro 5 g 10.8
  #     hydro 4 d 2.3
  #     hydro 4 p 3.7
  #     hydro 5 s 4.0
  #  Further functions - impr. -0.35 meV and below
  #     hydro 5 d 3.5
  #     hydro 6 d 0.4
  #     hydro 2 p 2.5
  #     hydro 5 f 12
  #     hydro 6 d 8.8
  ################################################################################
  #
  #  FHI-aims code project
  #  Volker Blum, Fritz Haber Institute Berlin, 2009
  #
  #  Suggested "tight" defaults for Zr atom (to be pasted into control.in file)
  #
  ################################################################################
    species          Zr
  #     global species definitions
      nucleus        40
      mass           91.224
  #
      l_hartree      6
  #
      cut_pot        4.0  2.0  1.0
      basis_dep_cutoff    1e-4
  #
      radial_base    58  7.0
      radial_multiplier  2
      angular_grids specified
        division   0.3653   50
        division   0.8035  110
        division   1.2273  194
        division   1.4586  302
        division   1.6764  434
  #      division   1.9671  590
  #      division   2.1961  770
  #      division   2.3240  974
  #      division   3.4772 1202
  #      outer_grid  974
        outer_grid  434
  ################################################################################
  #
  #  Definition of "minimal" basis
  #
  ################################################################################
  #     valence basis states
      valence      5  s   2.
      valence      4  p   6.
      valence      4  d   2.
  #     ion occupancy
      ion_occ      5  s   1.
      ion_occ      4  p   6.
      ion_occ      4  d   1.
  ################################################################################
  #
  #  Suggested additional basis functions. For production calculations,
  #  uncomment them one after another (the most important basis functions are
  #  listed first).
  #
  #  Constructed for dimers: 1.9, 2.25, 3.00, 4.00 Ang
  #
  ################################################################################
  #  "First tier" - improvements: -605.96 meV to -18.06 meV
       hydro 4 f 7.2
       ionic 4 d auto
       ionic 5 p auto
       hydro 5 g 10.4
       ionic 5 s auto
  #  "Second tier" - improvements: -32.47 meV to -1.41 meV
  #     hydro 4 f 10.4
  #     hydro 6 h 14.8
  #     hydro 4 d 6.2
  #     hydro 4 p 4.4
  #     hydro 4 f 20
  #     hydro 5 s 6
  #  "Third tier" - improvements: -1.99 meV and lower.
  #     hydro 4 f 5.8
  #     hydro 5 g 10.8
  #     hydro 2 p 1
  #     hydro 3 d 8
  #     hydro 6 h 14.4
  #     hydro 1 s 0.9
  #  Further functions (approx -0.40 meV and below possible)
  ################################################################################
  #
  #  FHI-aims code project
  #  Volker Blum, Fritz Haber Institute Berlin, 2009
  #
  #  Suggested "tight" defaults for S atom (to be pasted into control.in file)
  #
  #  Revised Jan 04, 2011, following tests (SiC) done by Lydia Nemec:
  #     d and g functions of tier 2 now enabled by default.
  #
  ################################################################################
    species        S
  #     global species definitions
      nucleus             16
      mass                32.065
  #
      l_hartree           6
  #
      cut_pot             4.0          2.0  1.0
      basis_dep_cutoff    1e-4
  #
      radial_base         44 7.0
      radial_multiplier   2
      angular_grids       specified
        division   0.4665  110
        division   0.5810  194
        division   0.7139  302
        division   0.8274  434
  #      division   0.9105  590
  #      division   1.0975  770
  #      division   1.2028  974
  #      outer_grid  974
        outer_grid  434
  ################################################################################
  #
  #  Definition of "minimal" basis
  #
  ################################################################################
  #     valence basis states
      valence      3  s   2.
      valence      3  p   4.
  #     ion occupancy
      ion_occ      3  s   1.
      ion_occ      3  p   3.
  ################################################################################
  #
  #  Suggested additional basis functions. For production calculations,
  #  uncomment them one after another (the most important basis functions are
  #  listed first).
  #
  #  Constructed for dimers: 1.6 A, 1.9 A, 2.5 A, 3.25 A, 4.0 A
  #
  ################################################################################
  #  "First tier" - improvements: -652.81 meV to -45.53 meV
       ionic 3 d auto
       hydro 2 p 1.8
       hydro 4 f 7
       ionic 3 s auto
  #  "Second tier" - improvements: -30.20 meV to -1.74 meV
       hydro 4 d 6.2
       hydro 5 g 10.8
  #     hydro 4 p 4.9
  #     hydro 5 f 10
  #     hydro 1 s 0.8
  #  "Third tier" - improvements: -1.04 meV to -0.20 meV
  #     hydro 3 d 3.9
  #     hydro 3 d 2.7
  #     hydro 5 g 12
  #     hydro 4 p 10.4
  #     hydro 5 f 12.4
  #     hydro 2 s 1.9
  #  "Fourth tier" - improvements: -0.35 meV to -0.06 meV
  #     hydro 4 d 10.4
  #     hydro 4 p 7.2
  #     hydro 4 d 10
  #     hydro 5 g 19.2
  #     hydro 4 s 12
  
  ################################################################################
  #
  # For methods that use the localized form of the "resolution of identity" for
  # the two-electron Coulomb operator (RI_method LVL), particularly Hartree-Fock and
  # hybrid density functional calculations, the highest accuracy can be obtained by
  # uncommenting the line beginning with "for_aux"  below, thus adding an extra g radial
  # function to the construction of the product basis set for the expansion.
  # See Ref. New J. Phys. 17, 093020 (2015) for more information, particularly Figs. 1 and 6.
  #
  ################################################################################
  #
  # for_aux hydro 5 g 6.0
  
  -----------------------------------------------------------------------
  Completed first pass over input file control.in .
  -----------------------------------------------------------------------
  
  
  -----------------------------------------------------------------------
  Parsing geometry.in (first pass over file, find array dimensions only).
  The contents of geometry.in will be repeated verbatim below
  unless switched off by setting 'verbatim_writeout .false.' .
  in the first line of geometry.in .
  -----------------------------------------------------------------------
  
  lattice_vector      1.8455 -3.19649976537  0.0
  lattice_vector      1.8455  3.19649976537  0.0
  lattice_vector      0.0    0.0     6.611
  atom_frac       0.0 0.0 0.0  Zr
  atom_frac       0.33333333 0.66666666 0.22  S
  atom_frac       0.66666666 0.33333333 -0.22  S
  symmetry_n_params 3 2 1
  symmetry_params a c z2
  symmetry_lv a*0.5, -0.86602540378*a, 0.0
  symmetry_lv a*0.5, 0.86602540378*a, 0.0
  symmetry_lv 0.0, 0.0, c
  symmetry_frac  0.0,0.0,0.0
  symmetry_frac  0.33333333,0.66666666,z2
  symmetry_frac  0.66666666,0.33333333,-z2
  
  -----------------------------------------------------------------------
  Completed first pass over input file geometry.in .
  -----------------------------------------------------------------------
  

  Basic array size parameters:
  | Number of species                 :        3
  | Number of atoms                   :        3
  | Number of lattice vectors         :        3
  | Max. basis fn. angular momentum   :        4
  | Max. atomic/ionic basis occupied n:        6
  | Max. number of basis fn. types    :        3
  | Max. radial fns per species/type  :       12
  | Max. logarithmic grid size        :     1460
  | Max. radial integration grid size :      131
  | Max. angular integration grid size:      434
  | Max. angular grid division number :        8
  | Radial grid for Hartree potential :     1460
  | Number of spin channels           :        1

------------------------------------------------------------
          Reading file control.in.
------------------------------------------------------------
  XC: Using PBEsol gradient-corrected functionals.
  Charge =   0.000000E+00: Neutral system requested explicitly.
  Spin treatment: No spin polarisation.
  Scalar relativistic treatment of kinetic energy: on-site free-atom approximation to ZORA.
  Found k-point grid:        16        16        12
  Convergence accuracy of self-consistent charge density:  0.1000E-06
  Convergence accuracy of forces:  0.1000E-05
  Geometry relaxation: Modified BFGS - TRM (trust radius method) for lattice optimization.
  Convergence accuracy for geometry relaxation: Maximum force <   0.500000E-02 eV/A.

  Reading configuration options for species Ba                  .
  | Found nuclear charge :  56.0000
  | Found atomic mass :    137.32700000000000      amu
  | Found l_max for Hartree potential  :   6
  | Found cutoff potl. onset [A], width [A], scale factor :    6.00000    2.00000    1.00000
  | Threshold for basis-dependent cutoff potential is   0.100000E-03
  | Found data for basic radial integration grid :    65 points, outermost radius =    7.000 A
  | Found multiplier for basic radial grid :   2
  | Found angular grid specification: user-specified.
  | Specified grid contains     5 separate shells.
  | Check grid settings after all constraints further below.
  | Found free-atom valence shell :  6 s   2.000
  | Found free-atom valence shell :  5 p   6.000
  | Found free-atom valence shell :  4 d  10.000
  | Found free-ion valence shell :  6 s   1.000
  | Found free-ion valence shell :  5 p   6.000
  | Found free-ion valence shell :  4 d  10.000
  | Found ionic basis function :  5 d , default cutoff radius.
  | Found ionic basis function :  4 f , default cutoff radius.
  | Found hydrogenic basis function :  3 p   2.700
  | Found hydrogenic basis function :  4 s   3.300
  | Found hydrogenic basis function :  4 f   5.800
  | Found hydrogenic basis function :  5 g   7.400
  Species Ba                  : Missing cutoff potential type.
  Defaulting to exp(1/x)/(1-x)^2 type cutoff potential.
  Species Ba: No 'logarithmic' tag. Using default grid for free atom:
  | Default logarithmic grid data [bohr] : 0.1000E-03 0.1000E+03 0.1012E+01
  | Will include ionic basis functions of  1.0-fold positive Ba                   ion.
  Species Ba: On-site basis accuracy parameter (for Gram-Schmidt orthonormalisation) not specified.
  Using default value basis_acc =  0.1000000E-03.
  Species Ba                  : Using default innermost maximum threshold i_radial=  2 for radial functions.
  Species Ba                  : Default cutoff onset for free atom density etc. : 0.60000000E+01 AA.
  Species Ba                  : Basic radial grid will be enhanced according to radial_multiplier =   2, to contain   131 grid points.

  Reading configuration options for species Zr                  .
  | Found nuclear charge :  40.0000
  | Found atomic mass :    91.224000000000004      amu
  | Found l_max for Hartree potential  :   6
  | Found cutoff potl. onset [A], width [A], scale factor :    4.00000    2.00000    1.00000
  | Threshold for basis-dependent cutoff potential is   0.100000E-03
  | Found data for basic radial integration grid :    58 points, outermost radius =    7.000 A
  | Found multiplier for basic radial grid :   2
  | Found angular grid specification: user-specified.
  | Specified grid contains     6 separate shells.
  | Check grid settings after all constraints further below.
  | Found free-atom valence shell :  5 s   2.000
  | Found free-atom valence shell :  4 p   6.000
  | Found free-atom valence shell :  4 d   2.000
  | Found free-ion valence shell :  5 s   1.000
  | Found free-ion valence shell :  4 p   6.000
  | Found free-ion valence shell :  4 d   1.000
  | Found hydrogenic basis function :  4 f   7.200
  | Found ionic basis function :  4 d , default cutoff radius.
  | Found ionic basis function :  5 p , default cutoff radius.
  | Found hydrogenic basis function :  5 g  10.400
  | Found ionic basis function :  5 s , default cutoff radius.
  Species Zr                  : Missing cutoff potential type.
  Defaulting to exp(1/x)/(1-x)^2 type cutoff potential.
  Species Zr: No 'logarithmic' tag. Using default grid for free atom:
  | Default logarithmic grid data [bohr] : 0.1000E-03 0.1000E+03 0.1012E+01
  | Will include ionic basis functions of  2.0-fold positive Zr                   ion.
  Species Zr: On-site basis accuracy parameter (for Gram-Schmidt orthonormalisation) not specified.
  Using default value basis_acc =  0.1000000E-03.
  Species Zr                  : Using default innermost maximum threshold i_radial=  2 for radial functions.
  Species Zr                  : Default cutoff onset for free atom density etc. : 0.40000000E+01 AA.
  Species Zr                  : Basic radial grid will be enhanced according to radial_multiplier =   2, to contain   117 grid points.

  Reading configuration options for species S                   .
  | Found nuclear charge :  16.0000
  | Found atomic mass :    32.064999999999998      amu
  | Found l_max for Hartree potential  :   6
  | Found cutoff potl. onset [A], width [A], scale factor :    4.00000    2.00000    1.00000
  | Threshold for basis-dependent cutoff potential is   0.100000E-03
  | Found data for basic radial integration grid :    44 points, outermost radius =    7.000 A
  | Found multiplier for basic radial grid :   2
  | Found angular grid specification: user-specified.
  | Specified grid contains     5 separate shells.
  | Check grid settings after all constraints further below.
  | Found free-atom valence shell :  3 s   2.000
  | Found free-atom valence shell :  3 p   4.000
  | Found free-ion valence shell :  3 s   1.000
  | Found free-ion valence shell :  3 p   3.000
  | Found ionic basis function :  3 d , default cutoff radius.
  | Found hydrogenic basis function :  2 p   1.800
  | Found hydrogenic basis function :  4 f   7.000
  | Found ionic basis function :  3 s , default cutoff radius.
  | Found hydrogenic basis function :  4 d   6.200
  | Found hydrogenic basis function :  5 g  10.800
  Species S                   : Missing cutoff potential type.
  Defaulting to exp(1/x)/(1-x)^2 type cutoff potential.
  Species S : No 'logarithmic' tag. Using default grid for free atom:
  | Default logarithmic grid data [bohr] : 0.1000E-03 0.1000E+03 0.1012E+01
  | Will include ionic basis functions of  2.0-fold positive S                    ion.
  Species S : On-site basis accuracy parameter (for Gram-Schmidt orthonormalisation) not specified.
  Using default value basis_acc =  0.1000000E-03.
  Species S                   : Using default innermost maximum threshold i_radial=  2 for radial functions.
  Species S                   : Default cutoff onset for free atom density etc. : 0.40000000E+01 AA.
  Species S                   : Basic radial grid will be enhanced according to radial_multiplier =   2, to contain    89 grid points.

  Finished reading input file 'control.in'.

------------------------------------------------------------


------------------------------------------------------------
          Reading geometry description geometry.in.
------------------------------------------------------------
  | The smallest distance between any two atoms is         2.58001895 AA.
  | The first atom of this pair is atom number                      3 .
  | The second atom of this pair is atom number                     1 .
  | Wigner-Seitz cell of the first atom image           1     0     0 .
  | (The Wigner-Seitz cell of the second atom is 0 0 0  by definition.)

  Symmetry information by spglib:
  | Precision set to  0.1E-04
  | Number of Operations  : 12
  | Space group           : 164
  | International         : P-3m1
  | Schoenflies           : D3d^3
  Input structure read successfully.
  The structure contains        3 atoms,  and a total of         72.000 electrons.

  Input geometry:
  | Unit cell:
  |        1.84550000       -3.19649977        0.00000000
  |        1.84550000        3.19649977        0.00000000
  |        0.00000000        0.00000000        6.61100000
  | Atomic structure:
  |       Atom                x [A]            y [A]            z [A]
  |    1: Species Zr            0.00000000        0.00000000        0.00000000
  |    2: Species S             1.84549998        1.06549991        1.45442000
  |    3: Species S             1.84549998       -1.06549991       -1.45442000

  Lattice parameters for 3D lattice (in Angstroms) :     3.691000    3.691000    6.611000
  Angle(s) between unit vectors (in degrees)       :    90.000000   90.000000  120.000000


  Quantities derived from the lattice vectors (in Angstrom^-1):
  | Reciprocal lattice vector 1:  1.702299 -0.982823  0.000000
  | Reciprocal lattice vector 2:  1.702299  0.982823  0.000000
  | Reciprocal lattice vector 3:  0.000000  0.000000  0.950414
  | Unit cell volume                               :   0.779984E+02  Angstrom^3

  Fractional coordinates:
                         L1                L2                L3
       atom_frac         0.00000000        0.00000000        0.00000000  Zr
       atom_frac         0.33333333        0.66666666        0.22000000  S
       atom_frac         0.66666666        0.33333333       -0.22000000  S


  Finished reading input file 'control.in'.


------------------------------------------------------------
          Reading geometry description geometry.in.
------------------------------------------------------------

  Consistency checks for stacksize environment parameter are next.

  | Maximum stacksize for task 0: unlimited
  | Maximum stacksize for task 1: unlimited
  | Maximum stacksize for task 2: unlimited
  | Maximum stacksize for task 3: unlimited
  | Maximum stacksize for task 4: unlimited
  | Maximum stacksize for task 5: unlimited
  | Maximum stacksize for task 6: unlimited
  | Maximum stacksize for task 7: unlimited
  | Maximum stacksize for task 8: unlimited
  | Maximum stacksize for task 9: unlimited
  | Maximum stacksize for task 10: unlimited
  | Maximum stacksize for task 11: unlimited
  | Maximum stacksize for task 12: unlimited
  | Maximum stacksize for task 13: unlimited
  | Maximum stacksize for task 14: unlimited
  | Maximum stacksize for task 15: unlimited
  | Maximum stacksize for task 16: unlimited
  | Maximum stacksize for task 17: unlimited
  | Maximum stacksize for task 18: unlimited
  | Maximum stacksize for task 19: unlimited
  | Maximum stacksize for task 20: unlimited
  | Maximum stacksize for task 21: unlimited
  | Maximum stacksize for task 22: unlimited
  | Maximum stacksize for task 23: unlimited
  | Maximum stacksize for task 24: unlimited
  | Maximum stacksize for task 25: unlimited
  | Maximum stacksize for task 26: unlimited
  | Maximum stacksize for task 27: unlimited
  | Maximum stacksize for task 28: unlimited
  | Maximum stacksize for task 29: unlimited
  | Maximum stacksize for task 30: unlimited
  | Maximum stacksize for task 31: unlimited
  | Maximum stacksize for task 32: unlimited
  | Maximum stacksize for task 33: unlimited
  | Maximum stacksize for task 34: unlimited
  | Maximum stacksize for task 35: unlimited
  | Maximum stacksize for task 36: unlimited
  | Maximum stacksize for task 37: unlimited
  | Maximum stacksize for task 38: unlimited
  | Maximum stacksize for task 39: unlimited
  | Maximum stacksize for task 40: unlimited
  | Maximum stacksize for task 41: unlimited
  | Maximum stacksize for task 42: unlimited
  | Maximum stacksize for task 43: unlimited
  | Maximum stacksize for task 44: unlimited
  | Maximum stacksize for task 45: unlimited
  | Maximum stacksize for task 46: unlimited
  | Maximum stacksize for task 47: unlimited
  | Maximum stacksize for task 48: unlimited
  | Maximum stacksize for task 49: unlimited
  | Maximum stacksize for task 50: unlimited
  | Maximum stacksize for task 51: unlimited
  | Maximum stacksize for task 52: unlimited
  | Maximum stacksize for task 53: unlimited
  | Maximum stacksize for task 54: unlimited
  | Maximum stacksize for task 55: unlimited
  | Maximum stacksize for task 56: unlimited
  | Maximum stacksize for task 57: unlimited
  | Maximum stacksize for task 58: unlimited
  | Maximum stacksize for task 59: unlimited
  | Maximum stacksize for task 60: unlimited
  | Maximum stacksize for task 61: unlimited
  | Maximum stacksize for task 62: unlimited
  | Maximum stacksize for task 63: unlimited
  | Maximum stacksize for task 64: unlimited
  | Maximum stacksize for task 65: unlimited
  | Maximum stacksize for task 66: unlimited
  | Maximum stacksize for task 67: unlimited
  | Maximum stacksize for task 68: unlimited
  | Maximum stacksize for task 69: unlimited
  | Maximum stacksize for task 70: unlimited
  | Maximum stacksize for task 71: unlimited
  | Maximum stacksize for task 72: unlimited
  | Maximum stacksize for task 73: unlimited
  | Maximum stacksize for task 74: unlimited
  | Maximum stacksize for task 75: unlimited
  | Maximum stacksize for task 76: unlimited
  | Maximum stacksize for task 77: unlimited
  | Maximum stacksize for task 78: unlimited
  | Maximum stacksize for task 79: unlimited
  | Maximum stacksize for task 80: unlimited
  | Maximum stacksize for task 81: unlimited
  | Maximum stacksize for task 82: unlimited
  | Maximum stacksize for task 83: unlimited
  | Maximum stacksize for task 84: unlimited
  | Maximum stacksize for task 85: unlimited
  | Maximum stacksize for task 86: unlimited
  | Maximum stacksize for task 87: unlimited
  | Maximum stacksize for task 88: unlimited
  | Maximum stacksize for task 89: unlimited
  | Maximum stacksize for task 90: unlimited
  | Maximum stacksize for task 91: unlimited
  | Maximum stacksize for task 92: unlimited
  | Maximum stacksize for task 93: unlimited
  | Maximum stacksize for task 94: unlimited
  | Maximum stacksize for task 95: unlimited
  | Maximum stacksize for task 96: unlimited
  | Maximum stacksize for task 97: unlimited
  | Maximum stacksize for task 98: unlimited
  | Maximum stacksize for task 99: unlimited
  | Maximum stacksize for task 100: unlimited
  | Maximum stacksize for task 101: unlimited
  | Maximum stacksize for task 102: unlimited
  | Maximum stacksize for task 103: unlimited
  | Maximum stacksize for task 104: unlimited
  | Maximum stacksize for task 105: unlimited
  | Maximum stacksize for task 106: unlimited
  | Maximum stacksize for task 107: unlimited
  | Maximum stacksize for task 108: unlimited
  | Maximum stacksize for task 109: unlimited
  | Maximum stacksize for task 110: unlimited
  | Maximum stacksize for task 111: unlimited
  | Maximum stacksize for task 112: unlimited
  | Maximum stacksize for task 113: unlimited
  | Maximum stacksize for task 114: unlimited
  | Maximum stacksize for task 115: unlimited
  | Maximum stacksize for task 116: unlimited
  | Maximum stacksize for task 117: unlimited
  | Maximum stacksize for task 118: unlimited
  | Maximum stacksize for task 119: unlimited
  | Maximum stacksize for task 120: unlimited
  | Maximum stacksize for task 121: unlimited
  | Maximum stacksize for task 122: unlimited
  | Maximum stacksize for task 123: unlimited
  | Maximum stacksize for task 124: unlimited
  | Maximum stacksize for task 125: unlimited
  | Maximum stacksize for task 126: unlimited
  | Maximum stacksize for task 127: unlimited
  | Current stacksize for task 0: unlimited
  | Current stacksize for task 1: unlimited
  | Current stacksize for task 2: unlimited
  | Current stacksize for task 3: unlimited
  | Current stacksize for task 4: unlimited
  | Current stacksize for task 5: unlimited
  | Current stacksize for task 6: unlimited
  | Current stacksize for task 7: unlimited
  | Current stacksize for task 8: unlimited
  | Current stacksize for task 9: unlimited
  | Current stacksize for task 10: unlimited
  | Current stacksize for task 11: unlimited
  | Current stacksize for task 12: unlimited
  | Current stacksize for task 13: unlimited
  | Current stacksize for task 14: unlimited
  | Current stacksize for task 15: unlimited
  | Current stacksize for task 16: unlimited
  | Current stacksize for task 17: unlimited
  | Current stacksize for task 18: unlimited
  | Current stacksize for task 19: unlimited
  | Current stacksize for task 20: unlimited
  | Current stacksize for task 21: unlimited
  | Current stacksize for task 22: unlimited
  | Current stacksize for task 23: unlimited
  | Current stacksize for task 24: unlimited
  | Current stacksize for task 25: unlimited
  | Current stacksize for task 26: unlimited
  | Current stacksize for task 27: unlimited
  | Current stacksize for task 28: unlimited
  | Current stacksize for task 29: unlimited
  | Current stacksize for task 30: unlimited
  | Current stacksize for task 31: unlimited
  | Current stacksize for task 32: unlimited
  | Current stacksize for task 33: unlimited
  | Current stacksize for task 34: unlimited
  | Current stacksize for task 35: unlimited
  | Current stacksize for task 36: unlimited
  | Current stacksize for task 37: unlimited
  | Current stacksize for task 38: unlimited
  | Current stacksize for task 39: unlimited
  | Current stacksize for task 40: unlimited
  | Current stacksize for task 41: unlimited
  | Current stacksize for task 42: unlimited
  | Current stacksize for task 43: unlimited
  | Current stacksize for task 44: unlimited
  | Current stacksize for task 45: unlimited
  | Current stacksize for task 46: unlimited
  | Current stacksize for task 47: unlimited
  | Current stacksize for task 48: unlimited
  | Current stacksize for task 49: unlimited
  | Current stacksize for task 50: unlimited
  | Current stacksize for task 51: unlimited
  | Current stacksize for task 52: unlimited
  | Current stacksize for task 53: unlimited
  | Current stacksize for task 54: unlimited
  | Current stacksize for task 55: unlimited
  | Current stacksize for task 56: unlimited
  | Current stacksize for task 57: unlimited
  | Current stacksize for task 58: unlimited
  | Current stacksize for task 59: unlimited
  | Current stacksize for task 60: unlimited
  | Current stacksize for task 61: unlimited
  | Current stacksize for task 62: unlimited
  | Current stacksize for task 63: unlimited
  | Current stacksize for task 64: unlimited
  | Current stacksize for task 65: unlimited
  | Current stacksize for task 66: unlimited
  | Current stacksize for task 67: unlimited
  | Current stacksize for task 68: unlimited
  | Current stacksize for task 69: unlimited
  | Current stacksize for task 70: unlimited
  | Current stacksize for task 71: unlimited
  | Current stacksize for task 72: unlimited
  | Current stacksize for task 73: unlimited
  | Current stacksize for task 74: unlimited
  | Current stacksize for task 75: unlimited
  | Current stacksize for task 76: unlimited
  | Current stacksize for task 77: unlimited
  | Current stacksize for task 78: unlimited
  | Current stacksize for task 79: unlimited
  | Current stacksize for task 80: unlimited
  | Current stacksize for task 81: unlimited
  | Current stacksize for task 82: unlimited
  | Current stacksize for task 83: unlimited
  | Current stacksize for task 84: unlimited
  | Current stacksize for task 85: unlimited
  | Current stacksize for task 86: unlimited
  | Current stacksize for task 87: unlimited
  | Current stacksize for task 88: unlimited
  | Current stacksize for task 89: unlimited
  | Current stacksize for task 90: unlimited
  | Current stacksize for task 91: unlimited
  | Current stacksize for task 92: unlimited
  | Current stacksize for task 93: unlimited
  | Current stacksize for task 94: unlimited
  | Current stacksize for task 95: unlimited
  | Current stacksize for task 96: unlimited
  | Current stacksize for task 97: unlimited
  | Current stacksize for task 98: unlimited
  | Current stacksize for task 99: unlimited
  | Current stacksize for task 100: unlimited
  | Current stacksize for task 101: unlimited
  | Current stacksize for task 102: unlimited
  | Current stacksize for task 103: unlimited
  | Current stacksize for task 104: unlimited
  | Current stacksize for task 105: unlimited
  | Current stacksize for task 106: unlimited
  | Current stacksize for task 107: unlimited
  | Current stacksize for task 108: unlimited
  | Current stacksize for task 109: unlimited
  | Current stacksize for task 110: unlimited
  | Current stacksize for task 111: unlimited
  | Current stacksize for task 112: unlimited
  | Current stacksize for task 113: unlimited
  | Current stacksize for task 114: unlimited
  | Current stacksize for task 115: unlimited
  | Current stacksize for task 116: unlimited
  | Current stacksize for task 117: unlimited
  | Current stacksize for task 118: unlimited
  | Current stacksize for task 119: unlimited
  | Current stacksize for task 120: unlimited
  | Current stacksize for task 121: unlimited
  | Current stacksize for task 122: unlimited
  | Current stacksize for task 123: unlimited
  | Current stacksize for task 124: unlimited
  | Current stacksize for task 125: unlimited
  | Current stacksize for task 126: unlimited
  | Current stacksize for task 127: unlimited

  Consistency checks for the contents of control.in are next.

  MPI_IN_PLACE appears to work with this MPI implementation.
  | Keeping use_mpi_in_place .true. (see manual).
  Target number of points in a grid batch is not set. Defaulting to  100
  Method for grid partitioning is not set. Defaulting to parallel hash+maxmin partitioning.
  Batch size limit is not set. Defaulting to    200
  By default, will store active basis functions for each batch.
  If in need of memory, prune_basis_once .false. can be used to disable this option.
  communication_type for Hartree potential was not specified.
  Defaulting to calc_hartree .
  Defaulting to Pulay charge density mixer.
  Pulay mixer: Number of relevant iterations not set.
  Defaulting to    8 iterations.
  Pulay mixer: Number of initial linear mixing iterations not set.
  Defaulting to    0 iterations.
  Work space size for distributed Hartree potential not set.
  Defaulting to   0.200000E+03 MB.
  Mixing parameter for charge density mixing has not been set.
  Using default: charge_mix_param =     0.0500.
  The mixing parameter will be adjusted in iteration number     2 of the first full s.c.f. cycle only.
  Algorithm-dependent basis array size parameters:
  | n_max_pulay                         :        8
  Maximum number of self-consistency iterations not provided.
  Presetting  1000 iterations.
  Presetting      1001 iterations before the initial mixing cycle
  is restarted anyway using the sc_init_iter criterion / keyword.
  Presetting a factor      1.000 between actual scf density residual
  and density convergence criterion sc_accuracy_rho below which sc_init_iter
  takes no effect.
  No maximum number of relaxation steps, defaulting to     1000
  Default initial Hessian is Lindh matrix (thres = 15.00) plus  0.200000E+01 eV/A^2 times unity.
  No maximum energy tolerance for TRM/BFGS moves, defaulting to   0.150000E-02
  Maximum energy tolerance by which TRM/BFGS trajectory may increase over multiple steps:   0.300000E-02
  No harmonic length scale. Defaulting to   0.250000E-01 A.
  No trust radius initializer. Defaulting to   0.200000E+00 A.
  Unit cell relaxation: Unit cell will be relaxed fully.
  Unit cell relaxation: Analytical stress will be used.
  Analytical stress will be computed.
  Analytical stress calculation: Only the upper triangle is calculated.
                                 Final output is symmetrized.
  Analytical stress calculation: scf convergence accuracy of stress not set.
                                 Analytical stress self-consistency will not be checked explicitly.
                                 Be sure to set other criteria like sc_accuracy_rho tight enough.
  Forces evaluation will include force correction term due to incomplete self-consistency (default).
  Handling of forces: Unphysical translation and rotation will be removed from forces.
  No accuracy limit for integral partition fn. given. Defaulting to  0.1000E-14.
  No threshold value for u(r) in integrations given. Defaulting to  0.1000E-05.
  No occupation type (smearing scheme) given. Defaulting to Gaussian broadening, width =  0.1000E-01 eV.
  The width will be adjusted in iteration number     2 of the first full s.c.f. cycle only.
  S.C.F. convergence parameters will be adjusted in iteration number     2 of the first full s.c.f. cycle only.
  No accuracy for occupation numbers given. Defaulting to  0.1000E-12.
  No threshold value for occupation numbers given. Defaulting to  0.0000E+00.
  No accuracy for fermi level given. Defaulting to  0.1000E-19.
  Maximum # of iterations to find E_F not set. Defaulting to  200.
  Preferred method for the eigenvalue solver ('KS_method') not specified in 'control.in'.
  Defaulting to serial version, LAPACK (via ELSI), since more k-points than CPUs available.
  Will not use alltoall communication since running on < 1024 CPUs.
  Threshold for basis singularities not set.
  Default threshold for basis singularities:  0.1000E-04
  partition_type (choice of integration weights) for integrals was not specified.
  | Using a version of the partition function of Stratmann and coworkers ('stratmann_sparse').
  | At each grid point, the set of atoms used to build the partition table is smoothly restricted to
  | only those atoms whose free-atom density would be non-zero at that grid point.
  Partitioning for Hartree potential was not defined. Using partition_type for integrals.
  | Adjusted default value of keyword multip_moments_threshold to:       0.10000000E-11
  | This value may affect high angular momentum components of the Hartree potential in periodic systems.
  Angular momentum expansion for Kerker preconditioner not set explicitly.
  | Using default value of   0
  No explicit requirement for turning off preconditioner.
  | By default, it will be turned off when the charge convergence reaches
  | sc_accuracy_rho  =   0.100000E-06
  No special mixing parameter while Kerker preconditioner is on.
  Using default: charge_mix_param =     0.0500.
  No q(lm)/r^(l+1) cutoff set for long-range Hartree potential.
  | Using default value of  0.100000E-09 .
  | Verify using the multipole_threshold keyword.
  Defaulting to new monopole extrapolation.
  Density update method: automatic selection selected.
  Using density matrix based charge density update.
  Using density matrix based charge density update.
  Using packed matrix style: index .
  Geometry relaxation: A file "geometry.in.next_step" is written out by default after each step.
  | This file contains the geometry of the current relaxation step as well as
  | the current Hessian matrix needed to restart the relaxation algorithm.
  | If you do not want part or all of this information, use the keywords
  | "write_restart_geometry" or "hessian_to_restart_geometry" to switch the output off.
  Defaulting to use time-reversal symmetry for k-point grid.
  Charge integration errors on the 3D integration grid will be compensated
  by explicit normalization and distribution of residual charges.
  Use the "compensate_multipole_errors" flag to change this behaviour.
  Set 'collect_eigenvectors' to be '.true.' for all serial calculations. This is mandatory.
  Set 'collect_eigenvectors' to be '.true.' for KS_method lapack_fast and serial.

  Consistency checks for the contents of geometry.in are next.


  Range separation radius for Ewald summation (hartree_convergence_parameter):      4.27568273 bohr.
  Number of empty states per atom not set in control.in - providing a guess from actual geometry.
  | Total number of empty states used during s.c.f. cycle:       12
  If you use a very high smearing, use empty_states (per atom!) in control.in to increase this value.

  Structure-dependent array size parameters: 
  | Maximum number of distinct radial functions  :       44
  | Maximum number of basis functions            :      127
  | Number of Kohn-Sham states (occupied + empty):       48
------------------------------------------------------------

------------------------------------------------------------
          Preparing all fixed parts of the calculation.
------------------------------------------------------------
  Determining machine precision:
     2.2250738585072014E-308
  Setting up grids for atomic and cluster calculations.

  Creating wave function, potential, and density for free atoms.
  Runtime choices for atomic solver:
  | atomic solver xc        : PBE
  | compute density gradient: 1
  | compute kinetic density : F

  Species: Ba

  List of occupied orbitals and eigenvalues:
    n    l              occ      energy [Ha]    energy [eV]
    1    0           2.0000     -1428.759176    -38878.5153
    2    0           2.0000      -218.156321     -5936.3355
    3    0           2.0000       -45.759571     -1245.1813
    4    0           2.0000        -8.961354      -243.8508
    5    0           2.0000        -1.235311       -33.6145
    6    0           2.0000        -0.117372        -3.1939
    2    1           6.0000      -195.503522     -5319.9215
    3    1           6.0000       -38.566500     -1049.4479
    4    1           6.0000        -6.648037      -180.9023
    5    1           6.0000        -0.686503       -18.6807
    3    2          10.0000       -28.146810      -765.9137
    4    2          10.0000        -3.294406       -89.6453


  Species: Zr

  List of occupied orbitals and eigenvalues:
    n    l              occ      energy [Ha]    energy [eV]
    1    0           2.0000      -668.722933    -18196.8768
    2    0           2.0000       -91.076987     -2478.3309
    3    0           2.0000       -14.873383      -404.7254
    4    0           2.0000        -1.994212       -54.2653
    5    0           2.0000        -0.156460        -4.2575
    2    1           6.0000       -81.194469     -2209.4139
    3    1           6.0000       -11.667913      -317.5001
    4    1           6.0000        -1.184217       -32.2242
    3    2          10.0000        -6.414313      -174.5423
    4    2           2.0000        -0.125045        -3.4027


  Species: S

  List of occupied orbitals and eigenvalues:
    n    l              occ      energy [Ha]    energy [eV]
    1    0           2.0000       -88.680731     -2413.1255
    2    0           2.0000        -7.781719      -211.7513
    3    0           2.0000        -0.633662       -17.2428
    2    1           6.0000        -5.751976      -156.5192
    3    1           4.0000        -0.257086        -6.9957


  Adding cutoff potential to free-atom effective potential.
  Creating fixed part of basis set: Ionic, confined, hydrogenic.

  Ba                   ion:

  List of free ionic orbitals and eigenvalues:
    n    l      energy [Ha]    energy [eV]
    1    0     -1428.980456    -38884.5366
    2    0      -218.370478     -5942.1630
    3    0       -45.972614     -1250.9785
    4    0        -9.173714      -249.6295
    5    0        -1.445296       -39.3285
    6    0        -0.278663        -7.5828
    2    1      -195.717553     -5325.7456
    3    1       -38.779502     -1055.2439
    4    1        -6.860306      -186.6784
    5    1        -0.894905       -24.3516
    3    2       -28.359770      -771.7086
    4    2        -3.506466       -95.4158


  List of ionic basis orbitals and eigenvalues:
    n    l      energy [Ha]    energy [eV]    outer radius [A]
    5    2        -0.260030        -7.0758       7.007670
    4    3        -0.142743        -3.8842       7.093864


  Ba                   hydrogenic:

  List of hydrogenic basis orbitals: 
    n    l      effective z      eigenvalue [eV]  inner max. [A]     outer max. [A]     outer radius [A]   
    3    1         2.700000       -11.0183           0.585865           2.360755           7.358861
    4    0         3.300000        -9.1387           0.118110           3.896996           7.449375
    4    3         5.800000       -28.6057           1.465516           1.465516           5.905331
    5    4         7.400000       -29.8017           1.782126           1.782126           6.354768


  Zr                   ion:

  List of free ionic orbitals and eigenvalues:
    n    l      energy [Ha]    energy [eV]
    1    0      -669.421026    -18215.8729
    2    0       -91.769634     -2497.1788
    3    0       -15.560469      -423.4219
    4    0        -2.663352       -72.4735
    5    0        -0.640863       -17.4388
    2    1       -81.886574     -2228.2470
    3    1       -12.354892      -336.1937
    4    1        -1.844122       -50.1811
    3    2        -7.101714      -193.2475
    4    2        -0.726930       -19.7808


  List of ionic basis orbitals and eigenvalues:
    n    l      energy [Ha]    energy [eV]    outer radius [A]
    4    2        -0.726920       -19.7805       5.008334
    5    1        -0.469561       -12.7774       5.455794
    5    0        -0.640774       -17.4363       5.389503


  Zr                   hydrogenic:

  List of hydrogenic basis orbitals: 
    n    l      effective z      eigenvalue [eV]  inner max. [A]     outer max. [A]     outer radius [A]   
    4    3         7.200000       -44.0822           1.169212           1.169212           5.008334
    5    4        10.400000       -58.8635           1.273673           1.273673           4.887365


  S                    ion:

  List of free ionic orbitals and eigenvalues:
    n    l      energy [Ha]    energy [eV]
    1    0       -89.703778     -2440.9640
    2    0        -8.775428      -238.7916
    3    0        -1.470343       -40.0101
    2    1        -6.747660      -183.6132
    3    1        -1.048627       -28.5346


  List of ionic basis orbitals and eigenvalues:
    n    l      energy [Ha]    energy [eV]    outer radius [A]
    3    2        -0.495605       -13.4861       5.386362
    3    0        -1.470336       -40.0099       3.967934


  S                    hydrogenic:

  List of hydrogenic basis orbitals: 
    n    l      effective z      eigenvalue [eV]  inner max. [A]     outer max. [A]     outer radius [A]   
    2    1         1.800000       -11.0118           1.168531           1.168531           5.452614
    4    3         7.000000       -41.6672           1.212182           1.212182           5.066981
    4    2         6.200000       -32.6848           0.582121           1.814567           5.386362
    5    4        10.800000       -63.4785           1.227092           1.227092           4.766538

  Creating atomic-like basis functions for current effective potential.

  Species Ba                  :

  List of atomic basis orbitals and eigenvalues:
    n    l      energy [Ha]    energy [eV]    outer radius [A]
    1    0     -1428.759176    -38878.5153       0.181180
    2    0      -218.156321     -5936.3355       0.481781
    3    0       -45.759571     -1245.1813       1.053516
    4    0        -8.961354      -243.8508       2.303735
    5    0        -1.235311       -33.6145       5.905331
    6    0        -0.117372        -3.1939       7.358861
    2    1      -195.503522     -5319.9215       0.493705
    3    1       -38.566500     -1049.4479       1.119920
    4    1        -6.648037      -180.9023       2.603304
    5    1        -0.686503       -18.6807       6.838410
    3    2       -28.146810      -765.9137       1.250174
    4    2        -3.294406       -89.6453       3.490975


  Species Zr                  :

  List of atomic basis orbitals and eigenvalues:
    n    l      energy [Ha]    energy [eV]    outer radius [A]
    1    0      -668.722933    -18196.8768       0.259930
    2    0       -91.076987     -2478.3309       0.725827
    3    0       -14.873383      -404.7254       1.771771
    4    0        -1.994212       -54.2653       4.541709
    5    0        -0.156460        -4.2575       5.455794
    2    1       -81.194469     -2209.4139       0.743792
    3    1       -11.667913      -317.5001       1.930067
    4    1        -1.184217       -32.2242       5.008334
    3    2        -6.414313      -174.5423       2.434714
    4    2        -0.125045        -3.4027       5.389503


  Species S                   :

  List of atomic basis orbitals and eigenvalues:
    n    l      energy [Ha]    energy [eV]    outer radius [A]
    1    0       -88.680731     -2413.1255       0.682391
    2    0        -7.781719      -211.7513       2.289014
    3    0        -0.633662       -17.2428       5.256262
    2    1        -5.751976      -156.5192       2.555240
    3    1        -0.257086        -6.9957       5.386362

  Assembling full basis from fixed parts.
  | Species Ba :   atomic orbital   1 s accepted.
  | Species Ba :   atomic orbital   2 s accepted.
  | Species Ba :   atomic orbital   3 s accepted.
  | Species Ba :   atomic orbital   4 s accepted.
  | Species Ba :   atomic orbital   5 s accepted.
  | Species Ba :   atomic orbital   6 s accepted.
  | Species Ba :    hydro orbital   4 s accepted.
  | Species Ba :   atomic orbital   2 p accepted.
  | Species Ba :   atomic orbital   3 p accepted.
  | Species Ba :   atomic orbital   4 p accepted.
  | Species Ba :   atomic orbital   5 p accepted.
  | Species Ba :    hydro orbital   3 p accepted.
  | Species Ba :   atomic orbital   3 d accepted.
  | Species Ba :   atomic orbital   4 d accepted.
  | Species Ba :    ionic orbital   5 d accepted.
  | Species Ba :    hydro orbital   4 f accepted.
  | Species Ba :    ionic orbital   4 f accepted.
  | Species Ba :    hydro orbital   5 g accepted.
  | Species Zr :   atomic orbital   1 s accepted.
  | Species Zr :   atomic orbital   2 s accepted.
  | Species Zr :   atomic orbital   3 s accepted.
  | Species Zr :   atomic orbital   4 s accepted.
  | Species Zr :    ionic orbital   5 s accepted.
  | Species Zr :   atomic orbital   5 s accepted.
  | Species Zr :   atomic orbital   2 p accepted.
  | Species Zr :   atomic orbital   3 p accepted.
  | Species Zr :   atomic orbital   4 p accepted.
  | Species Zr :    ionic orbital   5 p accepted.
  | Species Zr :   atomic orbital   3 d accepted.
  | Species Zr :    ionic orbital   4 d accepted.
  | Species Zr :   atomic orbital   4 d accepted.
  | Species Zr :    hydro orbital   4 f accepted.
  | Species Zr :    hydro orbital   5 g accepted.
  | Species S :   atomic orbital   1 s accepted.
  | Species S :   atomic orbital   2 s accepted.
  | Species S :    ionic orbital   3 s accepted.
  | Species S :   atomic orbital   3 s accepted.
  | Species S :   atomic orbital   2 p accepted.
  | Species S :   atomic orbital   3 p accepted.
  | Species S :    hydro orbital   2 p accepted.
  | Species S :    ionic orbital   3 d accepted.
  | Species S :    hydro orbital   4 d accepted.
  | Species S :    hydro orbital   4 f accepted.
  | Species S :    hydro orbital   5 g accepted.

  Basis size parameters after reduction:
  | Total number of radial functions:       44
  | Total number of basis functions :      127

  Per-task memory consumption for arrays in subroutine allocate_ext:
  |          16.451288MB.
  Testing on-site integration grid accuracy.
  |  Species  Function  <phi|h_atom|phi> (log., in eV)  <phi|h_atom|phi> (rad., in eV)
           1        1             -38878.5152842456             -38878.5102682711
           1        2              -5936.3355416432              -5936.3354463181
           1        3              -1245.1812725370              -1245.1812651319
           1        4               -243.8508498583               -243.8508475766
           1        5                -33.6145129113                -33.6145123744
           1        6                 -3.1953474132                 -3.1940995993
           1        7                  1.7217240859                  1.7400532086
           1        8              -5319.9215180603              -5319.9215128547
           1        9              -1049.4478540965              -1049.4478516474
           1       10               -180.9022912879               -180.9022896989
           1       11                -18.6806852844                -18.6806849603
           1       12                 -0.6584997172                 -0.6579606663
           1       13               -765.9136710812               -765.9136703559
           1       14                -89.6453457527                -89.6453448903
           1       15                 -1.8801763382                 -1.8802515933
           1       16                  8.1569476582                  8.1569486797
           1       17                  8.6054070843                  8.6053383614
           1       18                 17.5600091881                 17.5599879188
           2       19             -18196.8768435665             -18196.8755705220
           2       20              -2478.3309144498              -2478.3308916069
           2       21               -404.7253557491               -404.7253534742
           2       22                -54.2652640714                -54.2652635286
           2       23                 -3.7119764275                 -3.7119846577
           2       24                  4.5875772639                  4.5868905659
           2       25              -2209.4139097225              -2209.4139071812
           2       26               -317.5000788444               -317.5000777556
           2       27                -32.2241784576                -32.2241781542
           2       28                 -0.3319152745                 -0.3319660629
           2       29               -174.5423275335               -174.5423272575
           2       30                 -3.0504029429                 -3.0504025329
           2       31                  4.9970437712                  4.9966978803
           2       32                 16.8632595236                 16.8632598612
           2       33                 37.0867992037                 37.0867988501
           3       34              -2413.1254568977              -2413.1254096663
           3       35               -211.7513411281               -211.7513404762
           3       36                -16.9725280787                -16.9725279206
           3       37                  7.6024436204                  7.6024549059
           3       38               -156.5192206929               -156.5192205451
           3       39                 -6.9959757887                 -6.9959777655
           3       40                  6.8896462808                  6.8895564741
           3       41                  6.0214250550                  6.0214220200
           3       42                 19.6206468977                 19.6206494558
           3       43                 24.7008710786                 24.7008710738
           3       44                 47.5292252001                 47.5292260486

  Preparing densities etc. for the partition functions (integrals / Hartree potential).

  Preparations completed.
  max(cpu_time)          :      0.556 s.
  Wall clock time (cpu1) :      0.556 s.
------------------------------------------------------------

  Initializing index lists of integration centers etc. from given atomic structure:
  Mapping all atomic coordinates to central unit cell.

  Initializing the k-points
  Using symmetry for reducing the k-points
  | k-points reduced from:     3072 to     1540
  | Number of k-points                             :      1540
  The eigenvectors in the calculations are COMPLEX.
  | K-points in task   0:        12
  | K-points in task   1:        13
  | K-points in task   2:        13
  | K-points in task   3:        13
  | K-points in task   4:        13
  | K-points in task   5:        12
  | K-points in task   6:        12
  | K-points in task   7:        12
  | K-points in task   8:        12
  | K-points in task   9:        12
  | K-points in task  10:        12
  | K-points in task  11:        12
  | K-points in task  12:        12
  | K-points in task  13:        12
  | K-points in task  14:        12
  | K-points in task  15:        12
  | K-points in task  16:        12
  | K-points in task  17:        12
  | K-points in task  18:        12
  | K-points in task  19:        12
  | K-points in task  20:        12
  | K-points in task  21:        12
  | K-points in task  22:        12
  | K-points in task  23:        12
  | K-points in task  24:        12
  | K-points in task  25:        12
  | K-points in task  26:        12
  | K-points in task  27:        12
  | K-points in task  28:        12
  | K-points in task  29:        12
  | K-points in task  30:        12
  | K-points in task  31:        12
  | K-points in task  32:        12
  | K-points in task  33:        12
  | K-points in task  34:        12
  | K-points in task  35:        12
  | K-points in task  36:        12
  | K-points in task  37:        12
  | K-points in task  38:        12
  | K-points in task  39:        12
  | K-points in task  40:        12
  | K-points in task  41:        12
  | K-points in task  42:        12
  | K-points in task  43:        12
  | K-points in task  44:        12
  | K-points in task  45:        12
  | K-points in task  46:        12
  | K-points in task  47:        12
  | K-points in task  48:        12
  | K-points in task  49:        12
  | K-points in task  50:        12
  | K-points in task  51:        12
  | K-points in task  52:        12
  | K-points in task  53:        12
  | K-points in task  54:        12
  | K-points in task  55:        12
  | K-points in task  56:        12
  | K-points in task  57:        12
  | K-points in task  58:        12
  | K-points in task  59:        12
  | K-points in task  60:        12
  | K-points in task  61:        12
  | K-points in task  62:        12
  | K-points in task  63:        12
  | K-points in task  64:        12
  | K-points in task  65:        12
  | K-points in task  66:        12
  | K-points in task  67:        12
  | K-points in task  68:        12
  | K-points in task  69:        12
  | K-points in task  70:        12
  | K-points in task  71:        12
  | K-points in task  72:        12
  | K-points in task  73:        12
  | K-points in task  74:        12
  | K-points in task  75:        12
  | K-points in task  76:        12
  | K-points in task  77:        12
  | K-points in task  78:        12
  | K-points in task  79:        12
  | K-points in task  80:        12
  | K-points in task  81:        12
  | K-points in task  82:        12
  | K-points in task  83:        12
  | K-points in task  84:        12
  | K-points in task  85:        12
  | K-points in task  86:        12
  | K-points in task  87:        12
  | K-points in task  88:        12
  | K-points in task  89:        12
  | K-points in task  90:        12
  | K-points in task  91:        12
  | K-points in task  92:        12
  | K-points in task  93:        12
  | K-points in task  94:        12
  | K-points in task  95:        12
  | K-points in task  96:        12
  | K-points in task  97:        12
  | K-points in task  98:        12
  | K-points in task  99:        12
  | K-points in task 100:        12
  | K-points in task 101:        12
  | K-points in task 102:        12
  | K-points in task 103:        12
  | K-points in task 104:        12
  | K-points in task 105:        12
  | K-points in task 106:        12
  | K-points in task 107:        12
  | K-points in task 108:        12
  | K-points in task 109:        12
  | K-points in task 110:        12
  | K-points in task 111:        12
  | K-points in task 112:        12
  | K-points in task 113:        12
  | K-points in task 114:        12
  | K-points in task 115:        12
  | K-points in task 116:        12
  | K-points in task 117:        12
  | K-points in task 118:        12
  | K-points in task 119:        12
  | K-points in task 120:        12
  | K-points in task 121:        12
  | K-points in task 122:        12
  | K-points in task 123:        12
  | K-points in task 124:        12
  | K-points in task 125:        12
  | K-points in task 126:        12
  | K-points in task 127:        12
  | Number of basis functions in the Hamiltonian integrals :      3775
  | Number of basis functions in a single unit cell        :       127
  | Number of centers in hartree potential         :       871
  | Number of centers in hartree multipole         :       421
  | Number of centers in electron density summation:       299
  | Number of centers in basis integrals           :       311
  | Number of centers in integrals                 :       145
  | Number of centers in hamiltonian               :       747
  | Consuming       6015 KiB for k_phase.
  | Number of super-cells (origin) [n_cells]                     :        2025
  | Number of super-cells (after PM_index) [n_cells]             :         250
  | Number of super-cells in hamiltonian [n_cells_in_hamiltonian]:         250
  | Size of matrix packed + index [n_hamiltonian_matrix_size] :      410770

------------------------------------------------------------
          Begin self-consistency loop: Initialization.

          Date     :  20220718, Time     :  171354.111
------------------------------------------------------------

  Initializing relaxation algorithms.
  | Estimated reciprocal-space cutoff momentum G_max:         2.25752454 bohr^-1 .
  | Reciprocal lattice points for long-range Hartree potential:      98
  Partitioning the integration grid into batches with parallel hashing+maxmin method.
  | Number of batches:      878
  | Maximal batch size:     122
  | Minimal batch size:      53
  | Average batch size:      81.679
  | Standard deviation of batch sizes:      16.797

  Integration load balanced across   128 MPI tasks.
  Work distribution over tasks is as follows:
  Task     0 has        592 integration points.
  Task     1 has        539 integration points.
  Task     2 has        596 integration points.
  Task     3 has        552 integration points.
  Task     4 has        545 integration points.
  Task     5 has        555 integration points.
  Task     6 has        535 integration points.
  Task     7 has        568 integration points.
  Task     8 has        563 integration points.
  Task     9 has        551 integration points.
  Task    10 has        601 integration points.
  Task    11 has        557 integration points.
  Task    12 has        565 integration points.
  Task    13 has        547 integration points.
  Task    14 has        576 integration points.
  Task    15 has        591 integration points.
  Task    16 has        550 integration points.
  Task    17 has        548 integration points.
  Task    18 has        558 integration points.
  Task    19 has        552 integration points.
  Task    20 has        554 integration points.
  Task    21 has        555 integration points.
  Task    22 has        535 integration points.
  Task    23 has        554 integration points.
  Task    24 has        580 integration points.
  Task    25 has        563 integration points.
  Task    26 has        555 integration points.
  Task    27 has        565 integration points.
  Task    28 has        537 integration points.
  Task    29 has        550 integration points.
  Task    30 has        566 integration points.
  Task    31 has        541 integration points.
  Task    32 has        558 integration points.
  Task    33 has        563 integration points.
  Task    34 has        555 integration points.
  Task    35 has        567 integration points.
  Task    36 has        551 integration points.
  Task    37 has        594 integration points.
  Task    38 has        579 integration points.
  Task    39 has        561 integration points.
  Task    40 has        572 integration points.
  Task    41 has        547 integration points.
  Task    42 has        561 integration points.
  Task    43 has        564 integration points.
  Task    44 has        549 integration points.
  Task    45 has        585 integration points.
  Task    46 has        561 integration points.
  Task    47 has        567 integration points.
  Task    48 has        550 integration points.
  Task    49 has        564 integration points.
  Task    50 has        549 integration points.
  Task    51 has        541 integration points.
  Task    52 has        558 integration points.
  Task    53 has        554 integration points.
  Task    54 has        543 integration points.
  Task    55 has        563 integration points.
  Task    56 has        536 integration points.
  Task    57 has        560 integration points.
  Task    58 has        550 integration points.
  Task    59 has        590 integration points.
  Task    60 has        552 integration points.
  Task    61 has        565 integration points.
  Task    62 has        536 integration points.
  Task    63 has        541 integration points.
  Task    64 has        559 integration points.
  Task    65 has        560 integration points.
  Task    66 has        567 integration points.
  Task    67 has        563 integration points.
  Task    68 has        562 integration points.
  Task    69 has        556 integration points.
  Task    70 has        552 integration points.
  Task    71 has        546 integration points.
  Task    72 has        559 integration points.
  Task    73 has        538 integration points.
  Task    74 has        562 integration points.
  Task    75 has        565 integration points.
  Task    76 has        589 integration points.
  Task    77 has        545 integration points.
  Task    78 has        548 integration points.
  Task    79 has        563 integration points.
  Task    80 has        603 integration points.
  Task    81 has        582 integration points.
  Task    82 has        552 integration points.
  Task    83 has        564 integration points.
  Task    84 has        549 integration points.
  Task    85 has        547 integration points.
  Task    86 has        599 integration points.
  Task    87 has        578 integration points.
  Task    88 has        567 integration points.
  Task    89 has        551 integration points.
  Task    90 has        550 integration points.
  Task    91 has        553 integration points.
  Task    92 has        592 integration points.
  Task    93 has        575 integration points.
  Task    94 has        570 integration points.
  Task    95 has        557 integration points.
  Task    96 has        554 integration points.
  Task    97 has        594 integration points.
  Task    98 has        534 integration points.
  Task    99 has        549 integration points.
  Task   100 has        580 integration points.
  Task   101 has        564 integration points.
  Task   102 has        552 integration points.
  Task   103 has        543 integration points.
  Task   104 has        552 integration points.
  Task   105 has        601 integration points.
  Task   106 has        546 integration points.
  Task   107 has        546 integration points.
  Task   108 has        548 integration points.
  Task   109 has        547 integration points.
  Task   110 has        548 integration points.
  Task   111 has        576 integration points.
  Task   112 has        562 integration points.
  Task   113 has        549 integration points.
  Task   114 has        547 integration points.
  Task   115 has        578 integration points.
  Task   116 has        545 integration points.
  Task   117 has        559 integration points.
  Task   118 has        585 integration points.
  Task   119 has        558 integration points.
  Task   120 has        567 integration points.
  Task   121 has        567 integration points.
  Task   122 has        569 integration points.
  Task   123 has        547 integration points.
  Task   124 has        551 integration points.
  Task   125 has        551 integration points.
  Task   126 has        558 integration points.
  Task   127 has        582 integration points.
  Initializing partition tables, free-atom densities, potentials, etc. across the integration grid (initialize_grid_storage).
  | initialize_grid_storage: Actual outermost partition radius vs. multipole_radius_free
  | (-- VB: in principle, multipole_radius_free should be larger, hence this output)
  | Species        1: Confinement radius =              8.000000000000000 AA, multipole_radius_free =              8.016324652127386 AA.
  | Species        1: outer_partition_radius set to              8.016324652127386 AA .
  | Species        2: Confinement radius =              6.000000000000000 AA, multipole_radius_free =              6.016333975203386 AA.
  | Species        2: outer_partition_radius set to              6.016333975203386 AA .
  | Species        3: Confinement radius =              6.000000000000000 AA, multipole_radius_free =              6.012827091137924 AA.
  | Species        3: outer_partition_radius set to              6.012827091137924 AA .
  | The sparse table of interatomic distances needs        913.08 kbyte instead of       773.77 kbyte of memory.
  | Using the partition_type stratmann_smoother will reduce your memory usage.
  | Net number of integration points:    71714
  | of which are non-zero points    :    58473
  | Numerical average free-atom electrostatic potential    :    -13.25573211 eV
  Renormalizing the initial density to the exact electron count on the 3D integration grid.
  | Initial density: Formal number of electrons (from input files) :      72.0000000000
  | Integrated number of electrons on 3D grid     :      71.9999669581
  | Charge integration error                      :      -0.0000330419
  | Normalization factor for density and gradient :       1.0000004589
  Renormalizing the free-atom superposition density to the exact electron count on the 3D integration grid.
  | Formal number of electrons (from input files) :      72.0000000000
  | Integrated number of electrons on 3D grid     :      71.9999669581
  | Charge integration error                      :      -0.0000330419
  | Normalization factor for density and gradient :       1.0000004589
  Obtaining max. number of non-zero basis functions in each batch (get_n_compute_maxes).
  | Maximal number of non-zero basis functions:     1116 in task     0
  | Maximal number of non-zero basis functions:     1093 in task     1
  | Maximal number of non-zero basis functions:     1111 in task     2
  | Maximal number of non-zero basis functions:     1113 in task     3
  | Maximal number of non-zero basis functions:     1138 in task     4
  | Maximal number of non-zero basis functions:     1122 in task     5
  | Maximal number of non-zero basis functions:     1087 in task     6
  | Maximal number of non-zero basis functions:     1143 in task     7
  | Maximal number of non-zero basis functions:     1058 in task     8
  | Maximal number of non-zero basis functions:     1109 in task     9
  | Maximal number of non-zero basis functions:     1127 in task    10
  | Maximal number of non-zero basis functions:     1145 in task    11
  | Maximal number of non-zero basis functions:     1188 in task    12
  | Maximal number of non-zero basis functions:     1099 in task    13
  | Maximal number of non-zero basis functions:     1105 in task    14
  | Maximal number of non-zero basis functions:     1169 in task    15
  | Maximal number of non-zero basis functions:     1105 in task    16
  | Maximal number of non-zero basis functions:     1208 in task    17
  | Maximal number of non-zero basis functions:     1169 in task    18
  | Maximal number of non-zero basis functions:     1201 in task    19
  | Maximal number of non-zero basis functions:     1204 in task    20
  | Maximal number of non-zero basis functions:     1182 in task    21
  | Maximal number of non-zero basis functions:     1170 in task    22
  | Maximal number of non-zero basis functions:     1058 in task    23
  | Maximal number of non-zero basis functions:     1217 in task    24
[...]
  |                x                y                z                |
  |                                                                   |
  |  x        -0.00000626      -0.00000000       0.00000000           |
  |  y        -0.00000000      -0.00002479      -0.00000517           |
  |  z         0.00000000      -0.00000517      -0.00006829           |
  |                                                                   |
  |  Pressure:       0.00003311   [eV/A**3]                           |
  |                                                                   |
  +-------------------------------------------------------------------+

 * Warning: Stress tensor is anisotropic. Be aware that pressure is an isotropic quantity.


  Self-consistency convergence accuracy:
  | Change of charge density      :  0.2370E-08
  | Change of unmixed KS density  :  0.1379E-08
  | Change of sum of eigenvalues  : -0.2333E-05 eV
  | Change of total energy        : -0.7920E-09 eV
  | Change of forces              :  0.2854E-06 eV/A

  Writing Kohn-Sham eigenvalues.
  K-point:       1 at    0.000000    0.000000    0.000000 (in units of recip. lattice)

  State    Occupation    Eigenvalue [Ha]    Eigenvalue [eV]
      1       2.00000        -668.313118       -18185.72522
      2       2.00000         -91.079625        -2478.40270
      3       2.00000         -88.503039        -2408.29024
      4       2.00000         -88.503039        -2408.29023
      5       2.00000         -81.219899        -2210.10589
      6       2.00000         -81.219898        -2210.10589
      7       2.00000         -81.219871        -2210.10514
      8       2.00000         -14.914550         -405.84556
      9       2.00000         -11.718072         -318.86497
     10       2.00000         -11.718072         -318.86496
     11       2.00000         -11.717972         -318.86225
     12       2.00000          -7.761811         -211.20964
     13       2.00000          -7.761810         -211.20959
     14       2.00000          -6.475341         -176.20299
     15       2.00000          -6.475341         -176.20299
     16       2.00000          -6.475278         -176.20127
     17       2.00000          -6.474564         -176.18185
     18       2.00000          -6.474564         -176.18184
     19       2.00000          -5.741226         -156.22671
     20       2.00000          -5.741226         -156.22670
     21       2.00000          -5.741095         -156.22315
     22       2.00000          -5.741095         -156.22315
     23       2.00000          -5.741095         -156.22314
     24       2.00000          -5.741095         -156.22314
     25       2.00000          -2.055081          -55.92160
     26       2.00000          -1.250916          -34.03917
     27       2.00000          -1.244458          -33.86344
     28       2.00000          -1.244456          -33.86338
     29       2.00000          -0.732313          -19.92725
     30       2.00000          -0.674926          -18.36568
     31       2.00000          -0.430715          -11.72036
     32       2.00000          -0.364957           -9.93099
     33       2.00000          -0.364956           -9.93096
     34       2.00000          -0.263418           -7.16798
     35       2.00000          -0.263417           -7.16795
     36       2.00000          -0.261118           -7.10537
     37       0.00000          -0.205002           -5.57839
     38       0.00000          -0.204998           -5.57829
     39       0.00000          -0.178952           -4.86954
     40       0.00000          -0.080249           -2.18368
     41       0.00000          -0.080247           -2.18362
     42       0.00000          -0.048104           -1.30899
     43       0.00000          -0.045774           -1.24557
     44       0.00000           0.088204            2.40014
     45       0.00000           0.088204            2.40014
     46       0.00000           0.201154            5.47369
     47       0.00000           0.259306            7.05608
     48       0.00000           0.259307            7.05610

  What follows are estimated values for band gap, HOMO, LUMO, etc.
  | They are estimated on a discrete k-point grid and not necessarily exact.
  | For converged numbers, create a DOS and/or band structure plot on a denser k-grid.

  Highest occupied state (VBM) at     -7.08720733 eV (relative to internal zero)
  | Occupation number:      1.99999999
  | K-point:     225 at    0.062500    0.875000    0.000000 (in units of recip. lattice)

  Lowest unoccupied state (CBM) at    -6.34140160 eV (relative to internal zero)
  | Occupation number:      0.00000000
  | K-point:    1181 at    0.500000    0.500000    0.500000 (in units of recip. lattice)

  ESTIMATED overall HOMO-LUMO gap:      0.74580573 eV between HOMO at k-point 225 and LUMO at k-point 1181
  | This appears to be an indirect band gap.
  | Smallest direct gap :      1.52698715 eV for k_point 1 at    0.000000    0.000000    0.000000 (in units of recip. lattice)
  The gap value is above 0.2 eV. Unless you are using a very sparse k-point grid,
  this system is most likely an insulator or a semiconductor.

  | Chemical Potential                          :    -7.04621913 eV
  | Note that, for insulating systems, the printed 'chemical potential' value is not uniquely defined.
  | It can be anywhere in the energy gap, as long as it correctly separates occupied and unoccupied states.
  | In systems with a gap, the physically relevant chemical potential is the VBM or HOMO.

  Self-consistency cycle converged.


------------------------------------------------------------
  End self-consistency iteration #    12       :  max(cpu_time)    wall_clock(cpu1)
  | Time for this iteration                     :        5.186 s           5.181 s
  | Charge density & force component update     :        4.612 s           4.613 s
  | Density mixing                              :        0.006 s           0.001 s
  | Hartree multipole update                    :        0.001 s           0.001 s
  | Hartree multipole summation                 :        0.215 s           0.215 s
  | Hartree pot. SCF incomplete forces          :        0.143 s           0.143 s
  | Integration                                 :        0.115 s           0.114 s
  | Solution of K.-S. eqns.                     :        0.090 s           0.091 s
  | Total energy evaluation                     :        0.002 s           0.002 s

  Partial memory accounting:
  | Current value for overall tracked memory usage:
  |   Minimum:        9.758 MB (on task   0)
  |   Maximum:        9.944 MB (on task   1)
  |   Average:        9.763 MB
  | Peak value for overall tracked memory usage:
  |   Minimum:       44.548 MB (on task  11 after allocating d_wave)
  |   Maximum:       49.858 MB (on task  55 after allocating d_wave)
  |   Average:       47.392 MB
  | Largest tracked array allocation so far:
  |   Minimum:       11.655 MB (density_matrix_con on task  11)
  |   Maximum:       14.677 MB (density_matrix_con on task  15)
  |   Average:       13.302 MB
  Note:  These values currently only include a subset of arrays which are explicitly tracked.
  The "true" memory usage will be greater.
------------------------------------------------------------

  Energy and forces in a compact form:
  | Total energy uncorrected      :         -0.120454748486924E+06 eV
  | Total energy corrected        :         -0.120454748486924E+06 eV  <-- do not rely on this value for anything but (periodic) metals
  | Electronic free energy        :         -0.120454748486924E+06 eV
  Total atomic forces (unitary forces cleaned) [eV/Ang]:
  |    1         -0.398160612311142E-07          0.788290584955259E-07          0.466566645719885E-07
  |    2          0.283602196496229E-07          0.931756791432974E-04          0.375951962165333E-02
  |    3          0.114558415814913E-07         -0.932545082017929E-04         -0.375956627831790E-02

  ------------------------------------ 
  Start decomposition of the XC Energy 
  ------------------------------------ 
  X and C from original XC functional choice 
  Hartree-Fock Energy :          0.000000000 Ha              0.000000000 eV
  X Energy            :       -158.864988143 Ha          -4322.936275956 eV
  C Energy            :         -3.783501284 Ha           -102.954308195 eV
  XC Energy w/o HF    :       -162.648489427 Ha          -4425.890584151 eV
  Total XC Energy     :       -162.648489427 Ha          -4425.890584151 eV
  ------------------------------------ 
  LDA X and C from self-consistent density 
  X Energy LDA        :       -153.414837361 Ha          -4174.630127426 eV
  C Energy LDA        :         -6.183981404 Ha           -168.274695714 eV
  ------------------------------------ 
  End decomposition of the XC Energy 
  ------------------------------------ 

------------------------------------------------------------
  Relaxation / MD: End force evaluation.       :  max(cpu_time)    wall_clock(cpu1)
  | Time for this force evaluation              :       11.858 s          11.886 s

------------------------------------------------------------
  Geometry optimization: Attempting to predict improved coordinates.

  +-------------------------------------------------------------------+
  | Generalized derivatives on lattice vectors [eV/A]                 |
  +-------------------------------------------------------------------+
  |lattice_vector      -0.00011550       0.00026384       0.00005505  |
  |lattice_vector      -0.00011550      -0.00026385      -0.00005505  |
  |lattice_vector       0.00000000      -0.00005885      -0.00077710  |
  +-------------------------------------------------------------------+
  | Forces on lattice vectors cleaned from atomic contributions [eV/A]|
  +-------------------------------------------------------------------+
  |lattice_vector       0.00011550      -0.00026384      -0.00005505  |
  |lattice_vector       0.00011550       0.00026385       0.00005505  |
  |lattice_vector      -0.00000000       0.00005885       0.00077710  |
  +-------------------------------------------------------------------+
  Symmetrized total atomic cartesian forces [eV/Ang]:
  |   1     0.0000000000E+00     0.0000000000E+00     0.0000000000E+00
  |   2     0.0000000000E+00     0.0000000000E+00     0.3759542950E-02
  |   3     0.0000000000E+00     0.0000000000E+00    -0.3759542950E-02
  +-------------------------------------------------------------------+
  | Symmetrized forces on lattice vectors cleaned from symmetrized
  | atomic contributions [eV/A]|
  +-------------------------------------------------------------------+
  |lattice_vector       0.00014312      -0.00024790       0.00000000  |
  |lattice_vector       0.00014312       0.00024790       0.00000000  |
  |lattice_vector       0.00000000       0.00000000       0.00077710  |
  +-------------------------------------------------------------------+
  Net remaining forces (excluding translations, rotations) in present geometry:
  || Forces on atoms   || =   0.375954E-02 eV/A.
  || Forces on lattice || =   0.777100E-03 eV/A^3.
  Maximum force component is  0.375954E-02 eV/A.
  Present geometry is converged.

  Symmetry-reduced parameters:
  | atomic   1          0.247803257574693E+00
  | lattice  1          0.362489257876362E+01
  | lattice  2          0.587293996288379E+01
  Symmetry-reduced forces:
  | atomic   1          0.441591400662971E-01
  | lattice  1          0.572494626569307E-03
  | lattice  2          0.777099675722100E-03
------------------------------------------------------------
  Final atomic structure:
                         x [A]             y [A]             z [A]
  lattice_vector         1.81244629       -3.13924906        0.00000000
  lattice_vector         1.81244629        3.13924906        0.00000000
  lattice_vector         0.00000000        0.00000000        5.87293996

            atom         0.00000000        0.00000000        0.00000000  Zr
            atom        -0.00000002       -2.09283272        1.45533365  S
            atom        -0.00000002        2.09283272       -1.45533365  S

  Fractional coordinates:
                         L1                L2                L3
       atom_frac         0.00000000        0.00000000        0.00000000  Zr
       atom_frac         0.33333333       -0.33333334        0.24780326  S
       atom_frac        -0.33333334        0.33333333       -0.24780326  S
------------------------------------------------------------

------------------------------------------------------------------------------
  Final output of selected total energy values:

  The following output summarizes some interesting total energy values
  at the end of a run (AFTER all relaxation, molecular dynamics, etc.).

  | Total energy of the DFT / Hartree-Fock s.c.f. calculation      :        -120454.748486924 eV
  | Final zero-broadening corrected energy (caution - metals only) :        -120454.748486924 eV
  | For reference only, the value of 1 Hartree used in FHI-aims is :             27.211384500 eV
  | For reference only, the overall average (free atom contribution
  | + realspace contribution) of the electrostatic potential after
  | s.c.f. convergence is                                          :            -15.281225005 eV

  Before relying on these values, please be sure to understand exactly which
  total energy value is referred to by a given number. Different objects may
  all carry the same name 'total energy'. Definitions:

  Total energy of the DFT / Hartree-Fock s.c.f. calculation:
  | Note that this energy does not include ANY quantities calculated after the
  | s.c.f. cycle, in particular not ANY RPA, MP2, etc. many-body perturbation terms.

  Final zero-broadening corrected energy:
  | For metallic systems only, a broadening of the occupation numbers at the Fermi
  | level can be extrapolated back to zero broadening by an electron-gas inspired
  | formula. For all systems that are not real metals, this value can be
  | meaningless and should be avoided.

------------------------------------------------------------------------------
  Methods described in the following list of references were used in this FHI-aims run.
  If you publish the results, please make sure to cite these reference if they apply.
  FHI-aims is an academic code, and for our developers (often, Ph.D. students
  and postdocs), scientific credit in the community is essential.
  Thank you for helping us!

  For any use of FHI-aims, please cite:

    Volker Blum, Ralf Gehrke, Felix Hanke, Paula Havu, Ville Havu,
    Xinguo Ren, Karsten Reuter, and Matthias Scheffler
    'Ab initio molecular simulations with numeric atom-centered orbitals'
    Computer Physics Communications 180, 2175-2196 (2009)
    http://doi.org/10.1016/j.cpc.2009.06.022


  For the analytical stress tensor used in your run, please cite:

    Franz Knuth, Christian Carbogno, Viktor Atalla, Volker Blum, Matthias Scheffler
    'All-electron formalism for total energy strain derivatives and
    stress tensor components for numeric atom-centered orbitals'
    Computer Physics Communications 190, 33-50 (2015).
    http://doi.org/10.1016/j.cpc.2015.01.003


  For the parametric geometry constraints, please cite:

    Maja-Olivia Lenz, Thomas A. R. Purcell, David Hicks,
    Stefano Curtarolo, Matthias Scheffler, Christian Carbogno
    'Parametrically constrained geometry relaxations for high-throughput materials science'
    npj Computational Materials 5, 123 (2019).
    http://doi.org/10.1038/s41524-019-0254-4


  The provided symmetry information was generated with SPGlib:

    Atsushi Togo, Yusuke Seto, Dimitar Pashov
    SPGlib 1.7.3 obtained from http://spglib.sourceforge.net
    Copyright (C) 2008 Atsushi Togo


  The ELSI infrastructure was used in your run to solve the Kohn-Sham electronic structure.
  Please check out http://elsi-interchange.org to learn more.
  If scalability is important for your project, please acknowledge ELSI by citing:

    V. W-z. Yu, F. Corsetti, A. Garcia, W. P. Huhn, M. Jacquelin, W. Jia,
    B. Lange, L. Lin, J. Lu, W. Mi, A. Seifitokaldani, A. Vazquez-Mayagoitia,
    C. Yang, H. Yang, and V. Blum
    'ELSI: A unified software interface for Kohn-Sham electronic structure solvers'
    Computer Physics Communications 222, 267-285 (2018).
    http://doi.org/10.1016/j.cpc.2017.09.007


  For the real-space grid partitioning and parallelization used in this calculation, please cite:

    Ville Havu, Volker Blum, Paula Havu, and Matthias Scheffler,
    'Efficient O(N) integration for all-electron electronic structure calculation'
    'using numerically tabulated basis functions'
    Journal of Computational Physics 228, 8367-8379 (2009).
    http://doi.org/10.1016/j.jcp.2009.08.008

  Of course, there are many other important community references, e.g., those cited in the
  above references. Our list is limited to references that describe implementations in the
  FHI-aims code. The reason is purely practical (length of this list) - please credit others as well.

------------------------------------------------------------
          Leaving FHI-aims.
          Date     :  20220718, Time     :  171814.741

          Computational steps:
          | Number of self-consistency cycles          :          299
          | Number of SCF (re)initializations          :           22
          | Number of relaxation steps                 :           21

          Detailed time accounting                     :  max(cpu_time)    wall_clock(cpu1)
          | Total time                                  :      260.797 s         261.823 s
          | Preparation time                            :        0.556 s           0.556 s
          | Boundary condition initalization            :        2.040 s           2.016 s
          | Grid partitioning                           :        0.780 s           0.780 s
          | Preloading free-atom quantities on grid     :        0.529 s           0.527 s
          | Free-atom superposition energy              :        0.066 s           0.063 s
          | Total time for integrations                 :       31.764 s          31.771 s
          | Total time for solution of K.-S. equations  :       26.152 s          26.184 s
          | Total time for EV reorthonormalization      :        0.371 s           0.346 s
          | Total time for density & force components   :      160.870 s         160.876 s
          | Total time for mixing & preconditioning     :        5.545 s           4.494 s
          | Total time for Hartree multipole update     :        0.390 s           0.389 s
          | Total time for Hartree multipole sum        :       23.225 s          23.224 s
          | Total time for total energy evaluation      :        0.551 s           0.526 s
          | Total time NSC force correction             :        6.658 s           6.662 s
          | Total time for scaled ZORA corrections      :        0.000 s           0.000 s

          Partial memory accounting:
          | Residual value for overall tracked memory usage across tasks:     0.000000 MB (should be 0.000000 MB)
          | Peak values for overall tracked memory usage:
          |   Minimum:       44.548 MB (on task  11 after allocating d_wave)
          |   Maximum:       49.858 MB (on task  55 after allocating d_wave)
          |   Average:       47.392 MB
          | Largest tracked array allocation:
          |   Minimum:       11.655 MB (density_matrix_con on task  11)
          |   Maximum:       14.677 MB (density_matrix_con on task  15)
          |   Average:       13.302 MB
          Note:  These values currently only include a subset of arrays which are explicitly tracked.
          The "true" memory usage will be greater.

          Have a nice day.
------------------------------------------------------------
