------------------------------------------------------------
          Invoking FHI-aims ...

          When using FHI-aims, please cite the following reference:

            Volker Blum, Ralf Gehrke, Felix Hanke, Paula Havu,
            Ville Havu, Xinguo Ren, Karsten Reuter, and Matthias Scheffler,
            'Ab Initio Molecular Simulations with Numeric Atom-Centered Orbitals',
            Computer Physics Communications 180, 2175-2196 (2009)

          In addition, many other developments in FHI-aims are likely important for
          your particular application. A partial list of references is given at the end of
          this file. Thank you for giving credit to the authors of these developments.

          For any questions about FHI-aims, please visit our slack channel at

            https://fhi-aims.slack.com

          and our main development and support site at

            https://aims-git.rz-berlin.mpg.de .

          The latter site, in particular, has a wiki to collect information, as well
          as an issue tracker to log discussions, suggest improvements, and report issues
          or bugs. https://aims-git.rz-berlin.mpg.de is also the main development site
          of the project and all new and updated code versions can be obtained there.
          Please send an email to aims-coordinators@fhi-berlin.mpg.de and we will add
          you to these sites. They are for you and everyone is welcome there.

------------------------------------------------------------



  Date     :  20220509, Time     :  184645.545
  Time zero on CPU 1             :   0.461995000000000E+00  s.
  Internal wall clock time zero  :           421354005.545  s.

  FHI-aims created a unique identifier for this run for later identification
  aims_uuid : AC1C56C9-7D62-4975-ADD9-9CC0E0D2D83D

  Build configuration of the current instance of FHI-aims
  -------------------------------------------------------
  FHI-aims version      : 220115
  Commit number         : 912d67166
  CMake host system     : Linux-5.4.0-96-generic
  CMake version         : 3.16.3
  Fortran compiler      : /opt/intel/oneapi/mpi/2021.5.0/bin/mpiifort (Intel) version 20.2.5.20211109
  Fortran compiler flags: -O3 -ip -fp-model precise
  C compiler            : /opt/intel/oneapi/compiler/2022.0.1/linux/bin/intel64/icc (Intel) version 20.2.5.20211109
  C compiler flags      : -O3 -ip -fp-model precise -std=gnu99
  ELPA2 kernel          : AVX2
  Using MPI
  Using ScaLAPACK
  Using LibXC
  Using i-PI
  Using RLSY
  Linking against: /opt/intel/oneapi/mkl/2022.0.1/lib/intel64/libmkl_intel_lp64.so
                   /opt/intel/oneapi/mkl/2022.0.1/lib/intel64/libmkl_sequential.so
                   /opt/intel/oneapi/mkl/2022.0.1/lib/intel64/libmkl_core.so
                   /opt/intel/oneapi/mkl/2022.0.1/lib/intel64/libmkl_blacs_intelmpi_lp64.so
                   /opt/intel/oneapi/mkl/2022.0.1/lib/intel64/libmkl_scalapack_lp64.so

  Using       20 parallel tasks.
  Task        0 on host c21000127-lnx reporting.
  Task        1 on host c21000127-lnx reporting.
  Task        2 on host c21000127-lnx reporting.
  Task        3 on host c21000127-lnx reporting.
  Task        4 on host c21000127-lnx reporting.
  Task        5 on host c21000127-lnx reporting.
  Task        6 on host c21000127-lnx reporting.
  Task        7 on host c21000127-lnx reporting.
  Task        8 on host c21000127-lnx reporting.
  Task        9 on host c21000127-lnx reporting.
  Task       10 on host c21000127-lnx reporting.
  Task       11 on host c21000127-lnx reporting.
  Task       12 on host c21000127-lnx reporting.
  Task       13 on host c21000127-lnx reporting.
  Task       14 on host c21000127-lnx reporting.
  Task       15 on host c21000127-lnx reporting.
  Task       16 on host c21000127-lnx reporting.
  Task       17 on host c21000127-lnx reporting.
  Task       18 on host c21000127-lnx reporting.
  Task       19 on host c21000127-lnx reporting.

  Performing system and environment tests:
  *** Environment variable OMP_NUM_THREADS is not set
  *** For performance reasons you might want to set it to 1
  | Checking for ScaLAPACK...
  | Testing pdtran()...
  | All pdtran() tests passed.

  Obtaining array dimensions for all initial allocations:
  
  -----------------------------------------------------------------------
  Parsing control.in (first pass over file, find array dimensions only).
  The contents of control.in will be repeated verbatim below
  unless switched off by setting 'verbatim_writeout .false.' .
  in the first line of control.in .
  -----------------------------------------------------------------------
  
  xc               hse06 0.11
  hse_unit bohr-1
  exx_band_structure_version 1
  charge           0.
  spin             none
  occupation_type  gaussian 0.1
  relativistic atomic_zora scalar
  k_grid                12 12 12
  sc_accuracy_rho       1E-6
  include_spin_orbit non_self_consistent
  output band 0      0      0      0.5    0      0.5    51  Gamma X
  output band 0.5    0      0.5    0.5    0.25   0.75   51  X W
  output band 0.5    0.25   0.75   0.375  0.375  0.75   51  W K
  output band 0.375  0.375  0.75   0      0      0      51  K Gamma
  output band 0      0      0      0.5    0.5    0.5    51  Gamma L
  output band 0.5    0.5    0.5    0.625  0.75   0.625  51  L U
  output band 0.625  0.75   0.625  0.5    0.25   0.75   51  U W
  output band 0.5    0.25   0.75   0.5    0.5    0.5    51  W L
  output band 0.5    0.5    0.5    0.375  0.375  0.75   51  L K
  output band 0.625  0.75   0.625  0.5    0      0.5    51  U X
  ################################################################################
  #
  #  FHI-aims code project
  #  Volker Blum, Fritz Haber Institute Berlin, 2009
  #
  #  Suggested "tight" defaults for Ba atom (to be pasted into control.in file)
  #
  #  The onset of the cutoff pot'l WAS set to 8 A by default, because the neutral
  #  Ba atom is a large atom. However, this is very expensive. The radius should be
  #  much smaller in real-world situations, where Ba will be ionic. Please check
  #  and reduce the cutoff radius explicitly.
  #
  #  2015/11/12 : f and g functions from tier2 added to default basis set choice.
  #               These functions make a difference in the "delta test".
  #               Reduced the default cutoff radius to 6AA. The free-atom 6s function
  #               requires more. However, 6AA is already VERY expensive for
  #               any production calculations. In fact, revisit this choice for
  #               ionic systems to see if a smaller cutoff radius will do.
  #
  ################################################################################
    species          Ba
  #     global species definitions
      nucleus        56
      mass           137.327
  #
      l_hartree      6
  #
      cut_pot        6.0  2.0  1.0
      basis_dep_cutoff    1e-4
  #
      radial_base    65  7.0
      radial_multiplier  2
      angular_grids specified
        division   0.6752  110
        division   0.9746  194
        division   1.2241  302
        division   1.3850  434
  #      division   1.4734  590
  #      division   1.6010  770
  #      division   4.8366  974
  #      outer_grid  974
        outer_grid  434
  ################################################################################
  #
  #  Definition of "minimal" basis
  #
  ################################################################################
  #     valence basis states
      valence      6  s   2.
      valence      5  p   6.
      valence      4  d  10.
  #     ion occupancy
      ion_occ      6  s   1.
      ion_occ      5  p   6.
      ion_occ      4  d  10.
  ################################################################################
  #
  #  Suggested additional basis functions. For production calculations,
  #  uncomment them one after another (the most important basis functions are
  #  listed first).
  #
  #  Constructed for dimers: 2.65, 3.00, 3.50, 4.40, 5.50 Ang
  #
  ################################################################################
  #  "First tier" - improvements: -1277.43 meV to -9.16 meV
       ionic 5 d auto
       ionic 4 f auto
       hydro 3 p 2.7
       hydro 4 s 3.3
  #  "Second tier" - improvements: -64.04 (!) meV to -0.25 meV
       hydro 4 f 5.8
       hydro 5 g 7.4
  #     hydro 4 d 4.5
  #     hydro 6 h 11.2
  #     hydro 5 p 6.6
  #     hydro 2 s 3.2
  #  "Third tier" - max. impr. -1.16 meV, min. impr. -0.08 meV
  #     hydro 5 f 7.4
  #     hydro 5 g 10.8
  #     hydro 4 d 2.3
  #     hydro 4 p 3.7
  #     hydro 5 s 4.0
  #  Further functions - impr. -0.35 meV and below
  #     hydro 5 d 3.5
  #     hydro 6 d 0.4
  #     hydro 2 p 2.5
  #     hydro 5 f 12
  #     hydro 6 d 8.8
  ################################################################################
  #
  #  FHI-aims code project
  #  Volker Blum, Fritz Haber Institute Berlin, 2009
  #
  #  Suggested "tight" defaults for Zr atom (to be pasted into control.in file)
  #
  ################################################################################
    species          Zr
  #     global species definitions
      nucleus        40
      mass           91.224
  #
      l_hartree      6
  #
      cut_pot        4.0  2.0  1.0
      basis_dep_cutoff    1e-4
  #
      radial_base    58  7.0
      radial_multiplier  2
      angular_grids specified
        division   0.3653   50
        division   0.8035  110
        division   1.2273  194
        division   1.4586  302
        division   1.6764  434
  #      division   1.9671  590
  #      division   2.1961  770
  #      division   2.3240  974
  #      division   3.4772 1202
  #      outer_grid  974
        outer_grid  434
  ################################################################################
  #
  #  Definition of "minimal" basis
  #
  ################################################################################
  #     valence basis states
      valence      5  s   2.
      valence      4  p   6.
      valence      4  d   2.
  #     ion occupancy
      ion_occ      5  s   1.
      ion_occ      4  p   6.
      ion_occ      4  d   1.
  ################################################################################
  #
  #  Suggested additional basis functions. For production calculations,
  #  uncomment them one after another (the most important basis functions are
  #  listed first).
  #
  #  Constructed for dimers: 1.9, 2.25, 3.00, 4.00 Ang
  #
  ################################################################################
  #  "First tier" - improvements: -605.96 meV to -18.06 meV
       hydro 4 f 7.2
       ionic 4 d auto
       ionic 5 p auto
       hydro 5 g 10.4
       ionic 5 s auto
  #  "Second tier" - improvements: -32.47 meV to -1.41 meV
  #     hydro 4 f 10.4
  #     hydro 6 h 14.8
  #     hydro 4 d 6.2
  #     hydro 4 p 4.4
  #     hydro 4 f 20
  #     hydro 5 s 6
  #  "Third tier" - improvements: -1.99 meV and lower.
  #     hydro 4 f 5.8
  #     hydro 5 g 10.8
  #     hydro 2 p 1
  #     hydro 3 d 8
  #     hydro 6 h 14.4
  #     hydro 1 s 0.9
  #  Further functions (approx -0.40 meV and below possible)
  ################################################################################
  #
  #  FHI-aims code project
  #  Volker Blum, Fritz Haber Institute Berlin, 2009
  #
  #  Suggested "tight" defaults for S atom (to be pasted into control.in file)
  #
  #  Revised Jan 04, 2011, following tests (SiC) done by Lydia Nemec:
  #     d and g functions of tier 2 now enabled by default.
  #
  ################################################################################
    species        S
  #     global species definitions
      nucleus             16
      mass                32.065
  #
      l_hartree           6
  #
      cut_pot             4.0          2.0  1.0
      basis_dep_cutoff    1e-4
  #
      radial_base         44 7.0
      radial_multiplier   2
      angular_grids       specified
        division   0.4665  110
        division   0.5810  194
        division   0.7139  302
        division   0.8274  434
  #      division   0.9105  590
  #      division   1.0975  770
  #      division   1.2028  974
  #      outer_grid  974
        outer_grid  434
  ################################################################################
  #
  #  Definition of "minimal" basis
  #
  ################################################################################
  #     valence basis states
      valence      3  s   2.
      valence      3  p   4.
  #     ion occupancy
      ion_occ      3  s   1.
      ion_occ      3  p   3.
  ################################################################################
  #
  #  Suggested additional basis functions. For production calculations,
  #  uncomment them one after another (the most important basis functions are
  #  listed first).
  #
  #  Constructed for dimers: 1.6 A, 1.9 A, 2.5 A, 3.25 A, 4.0 A
  #
  ################################################################################
  #  "First tier" - improvements: -652.81 meV to -45.53 meV
       ionic 3 d auto
       hydro 2 p 1.8
       hydro 4 f 7
       ionic 3 s auto
  #  "Second tier" - improvements: -30.20 meV to -1.74 meV
       hydro 4 d 6.2
       hydro 5 g 10.8
  #     hydro 4 p 4.9
  #     hydro 5 f 10
  #     hydro 1 s 0.8
  #  "Third tier" - improvements: -1.04 meV to -0.20 meV
  #     hydro 3 d 3.9
  #     hydro 3 d 2.7
  #     hydro 5 g 12
  #     hydro 4 p 10.4
  #     hydro 5 f 12.4
  #     hydro 2 s 1.9
  #  "Fourth tier" - improvements: -0.35 meV to -0.06 meV
  #     hydro 4 d 10.4
  #     hydro 4 p 7.2
  #     hydro 4 d 10
  #     hydro 5 g 19.2
  #     hydro 4 s 12
  
  ################################################################################
  #
  # For methods that use the localized form of the "resolution of identity" for
  # the two-electron Coulomb operator (RI_method LVL), particularly Hartree-Fock and
  # hybrid density functional calculations, the highest accuracy can be obtained by
  # uncommenting the line beginning with "for_aux"  below, thus adding an extra g radial
  # function to the construction of the product basis set for the expansion.
  # See Ref. New J. Phys. 17, 093020 (2015) for more information, particularly Figs. 1 and 6.
  #
  ################################################################################
  #
  # for_aux hydro 5 g 6.0
  
  -----------------------------------------------------------------------
  Completed first pass over input file control.in .
  -----------------------------------------------------------------------
  
  
  -----------------------------------------------------------------------
  Parsing geometry.in (first pass over file, find array dimensions only).
  The contents of geometry.in will be repeated verbatim below
  unless switched off by setting 'verbatim_writeout .false.' .
  in the first line of geometry.in .
  -----------------------------------------------------------------------
  
  #
  # This is the geometry file that corresponds to the current relaxation step.
  # If you do not want this file to be written, set the "write_restart_geometry" flag to .false.
  #  aims_uuid : 53FAAC0A-331E-4ECF-A869-622E7AE2876F
  #
  lattice_vector      0.00000000      3.16243887      3.16243887
  lattice_vector      3.16243887      0.00000000      3.16243887
  lattice_vector      3.16243887      3.16243887      0.00000000
  atom_frac       0.00000000      0.00000000      0.00000000 Ba
  atom_frac       0.50000000      0.50000000      0.50000000 S
  #
  # What follows is the current estimated Hessian matrix constructed by the BFGS algorithm.
  # This is NOT the true Hessian matrix of the system.
  # If you do not want this information here, switch it off using the "hessian_to_restart_geometry" keyword.
  #
  trust_radius             0.2000000030
  hessian_block_lv             1       1           4.224803           0.000000           0.000000           0.000000           0.00000
  
  -----------------------------------------------------------------------
  Completed first pass over input file geometry.in .
  -----------------------------------------------------------------------
  

  Basic array size parameters:
  | Number of species                 :        3
  | Number of atoms                   :        2
  | Number of lattice vectors         :        3
  | Max. basis fn. angular momentum   :        4
  | Max. atomic/ionic basis occupied n:        6
  | Max. number of basis fn. types    :        3
  | Max. radial fns per species/type  :       12
  | Max. logarithmic grid size        :     1460
  | Max. radial integration grid size :      131
  | Max. angular integration grid size:      434
  | Max. angular grid division number :        8
  | Radial grid for Hartree potential :     1460
  | Number of spin channels           :        1

------------------------------------------------------------
          Reading file control.in.
------------------------------------------------------------

  XC: Using HSE-functional with OMEGA =  0.110000E+00 <units>.
  XC: For the actual units (bohr^-1 or Angstrom^-1), see below.
  hse_unit: Unit for the HSE06 hybrid functional screening parameter set to bohr^(-1).
  Charge =   0.000000E+00: Neutral system requested explicitly.
  Spin treatment: No spin polarisation.
  Occupation type: Gaussian broadening, width =   0.100000E+00 eV.
  Scalar relativistic treatment of kinetic energy: on-site free-atom approximation to ZORA.
  Found k-point grid:        12        12        12
  Convergence accuracy of self-consistent charge density:  0.1000E-05
  Calculating non-self-consistent second-variational spin-orbit coupling after scf-cycle

  Plot band    1
  | begin  0.000000  0.000000  0.000000
  | end    0.500000  0.000000  0.500000
  | number of points:   51

  Plot band    2
  | begin  0.500000  0.000000  0.500000
  | end    0.500000  0.250000  0.750000
  | number of points:   51

  Plot band    3
  | begin  0.500000  0.250000  0.750000
  | end    0.375000  0.375000  0.750000
  | number of points:   51

  Plot band    4
  | begin  0.375000  0.375000  0.750000
  | end    0.000000  0.000000  0.000000
  | number of points:   51

  Plot band    5
  | begin  0.000000  0.000000  0.000000
  | end    0.500000  0.500000  0.500000
  | number of points:   51

  Plot band    6
  | begin  0.500000  0.500000  0.500000
  | end    0.625000  0.750000  0.625000
  | number of points:   51

  Plot band    7
  | begin  0.625000  0.750000  0.625000
  | end    0.500000  0.250000  0.750000
  | number of points:   51

  Plot band    8
  | begin  0.500000  0.250000  0.750000
  | end    0.500000  0.500000  0.500000
  | number of points:   51

  Plot band    9
  | begin  0.500000  0.500000  0.500000
  | end    0.375000  0.375000  0.750000
  | number of points:   51

  Plot band   10
  | begin  0.625000  0.750000  0.625000
  | end    0.500000  0.000000  0.500000
  | number of points:   51
 
  Reading configuration options for species Ba                  .
  | Found nuclear charge :  56.0000
  | Found atomic mass :    137.327000000000      amu
  | Found l_max for Hartree potential  :   6
  | Found cutoff potl. onset [A], width [A], scale factor :    6.00000    2.00000    1.00000
  | Threshold for basis-dependent cutoff potential is   0.100000E-03
  | Found data for basic radial integration grid :    65 points, outermost radius =    7.000 A
  | Found multiplier for basic radial grid :   2
  | Found angular grid specification: user-specified.
  | Specified grid contains     5 separate shells.
  | Check grid settings after all constraints further below.
  | Found free-atom valence shell :  6 s   2.000
  | Found free-atom valence shell :  5 p   6.000
  | Found free-atom valence shell :  4 d  10.000
  | Found free-ion valence shell :  6 s   1.000
  | Found free-ion valence shell :  5 p   6.000
  | Found free-ion valence shell :  4 d  10.000
  | Found ionic basis function :  5 d , default cutoff radius.
  | Found ionic basis function :  4 f , default cutoff radius.
  | Found hydrogenic basis function :  3 p   2.700
  | Found hydrogenic basis function :  4 s   3.300
  | Found hydrogenic basis function :  4 f   5.800
  | Found hydrogenic basis function :  5 g   7.400
  Species Ba                  : Missing cutoff potential type.
  Defaulting to exp(1/x)/(1-x)^2 type cutoff potential.
  Species Ba: No 'logarithmic' tag. Using default grid for free atom:
  | Default logarithmic grid data [bohr] : 0.1000E-03 0.1000E+03 0.1012E+01
  | Will include ionic basis functions of  1.0-fold positive Ba                   ion.
  Species Ba: On-site basis accuracy parameter (for Gram-Schmidt orthonormalisation) not specified.
  Using default value basis_acc =  0.1000000E-03.
  Species Ba                  : Using default innermost maximum threshold i_radial=  2 for radial functions.
  Species Ba                  : Default cutoff onset for free atom density etc. : 0.60000000E+01 AA.
  Species Ba                  : Basic radial grid will be enhanced according to radial_multiplier =   2, to contain   131 grid points.
 
  Reading configuration options for species Zr                  .
  | Found nuclear charge :  40.0000
  | Found atomic mass :    91.2240000000000      amu
  | Found l_max for Hartree potential  :   6
  | Found cutoff potl. onset [A], width [A], scale factor :    4.00000    2.00000    1.00000
  | Threshold for basis-dependent cutoff potential is   0.100000E-03
  | Found data for basic radial integration grid :    58 points, outermost radius =    7.000 A
  | Found multiplier for basic radial grid :   2
  | Found angular grid specification: user-specified.
  | Specified grid contains     6 separate shells.
  | Check grid settings after all constraints further below.
  | Found free-atom valence shell :  5 s   2.000
  | Found free-atom valence shell :  4 p   6.000
  | Found free-atom valence shell :  4 d   2.000
  | Found free-ion valence shell :  5 s   1.000
  | Found free-ion valence shell :  4 p   6.000
  | Found free-ion valence shell :  4 d   1.000
  | Found hydrogenic basis function :  4 f   7.200
  | Found ionic basis function :  4 d , default cutoff radius.
  | Found ionic basis function :  5 p , default cutoff radius.
  | Found hydrogenic basis function :  5 g  10.400
  | Found ionic basis function :  5 s , default cutoff radius.
  Species Zr                  : Missing cutoff potential type.
  Defaulting to exp(1/x)/(1-x)^2 type cutoff potential.
  Species Zr: No 'logarithmic' tag. Using default grid for free atom:
  | Default logarithmic grid data [bohr] : 0.1000E-03 0.1000E+03 0.1012E+01
  | Will include ionic basis functions of  2.0-fold positive Zr                   ion.
  Species Zr: On-site basis accuracy parameter (for Gram-Schmidt orthonormalisation) not specified.
  Using default value basis_acc =  0.1000000E-03.
  Species Zr                  : Using default innermost maximum threshold i_radial=  2 for radial functions.
  Species Zr                  : Default cutoff onset for free atom density etc. : 0.40000000E+01 AA.
  Species Zr                  : Basic radial grid will be enhanced according to radial_multiplier =   2, to contain   117 grid points.
 
  Reading configuration options for species S                   .
  | Found nuclear charge :  16.0000
  | Found atomic mass :    32.0650000000000      amu
  | Found l_max for Hartree potential  :   6
  | Found cutoff potl. onset [A], width [A], scale factor :    4.00000    2.00000    1.00000
  | Threshold for basis-dependent cutoff potential is   0.100000E-03
  | Found data for basic radial integration grid :    44 points, outermost radius =    7.000 A
  | Found multiplier for basic radial grid :   2
  | Found angular grid specification: user-specified.
  | Specified grid contains     5 separate shells.
  | Check grid settings after all constraints further below.
  | Found free-atom valence shell :  3 s   2.000
  | Found free-atom valence shell :  3 p   4.000
  | Found free-ion valence shell :  3 s   1.000
  | Found free-ion valence shell :  3 p   3.000
  | Found ionic basis function :  3 d , default cutoff radius.
  | Found hydrogenic basis function :  2 p   1.800
  | Found hydrogenic basis function :  4 f   7.000
  | Found ionic basis function :  3 s , default cutoff radius.
  | Found hydrogenic basis function :  4 d   6.200
  | Found hydrogenic basis function :  5 g  10.800
  Species S                   : Missing cutoff potential type.
  Defaulting to exp(1/x)/(1-x)^2 type cutoff potential.
  Species S : No 'logarithmic' tag. Using default grid for free atom:
  | Default logarithmic grid data [bohr] : 0.1000E-03 0.1000E+03 0.1012E+01
  | Will include ionic basis functions of  2.0-fold positive S                    ion.
  Species S : On-site basis accuracy parameter (for Gram-Schmidt orthonormalisation) not specified.
  Using default value basis_acc =  0.1000000E-03.
  Species S                   : Using default innermost maximum threshold i_radial=  2 for radial functions.
  Species S                   : Default cutoff onset for free atom density etc. : 0.40000000E+01 AA.
  Species S                   : Basic radial grid will be enhanced according to radial_multiplier =   2, to contain    89 grid points.
 
  Finished reading input file 'control.in'.
 
------------------------------------------------------------


------------------------------------------------------------
          Reading geometry description geometry.in.
------------------------------------------------------------
 * Large trust radius value found - resetting to the current value of max_atomic_move,      0.20000000 A.
  | The smallest distance between any two atoms is         3.16243887 AA.
  | The first atom of this pair is atom number                      1 .
  | The second atom of this pair is atom number                     2 .
  | Wigner-Seitz cell of the first atom image           0     0     0 .
  | (The Wigner-Seitz cell of the second atom is 0 0 0  by definition.)

  Symmetry information by spglib:
  | Precision set to  0.1E-04
  | Number of Operations  : 48
  | Space group           : 225
  | International         : Fm-3m
  | Schoenflies           : Oh^5
  Input structure read successfully.
  The structure contains        2 atoms,  and a total of         72.000 electrons.

  Input geometry:
  | Unit cell:
  |        0.00000000        3.16243887        3.16243887
  |        3.16243887        0.00000000        3.16243887
  |        3.16243887        3.16243887        0.00000000
  | Atomic structure:
  |       Atom                x [A]            y [A]            z [A]
  |    1: Species Ba            0.00000000        0.00000000        0.00000000
  |    2: Species S             3.16243887        3.16243887        3.16243887

  Lattice parameters for 3D lattice (in Angstroms) :     4.472364    4.472364    4.472364
  Angle(s) between unit vectors (in degrees)       :    60.000000   60.000000   60.000000


  Quantities derived from the lattice vectors:
  | Reciprocal lattice vector 1: -0.993408  0.993408  0.993408
  | Reciprocal lattice vector 2:  0.993408 -0.993408  0.993408
  | Reciprocal lattice vector 3:  0.993408  0.993408 -0.993408
  | Unit cell volume                               :   0.632552E+02  A^3

  Fractional coordinates:
                         L1                L2                L3
       atom_frac         0.00000000        0.00000000        0.00000000  Ba
       atom_frac         0.50000000        0.50000000        0.50000000  S

 
  Finished reading input file 'control.in'.
 

------------------------------------------------------------
          Reading geometry description geometry.in.
------------------------------------------------------------
 
  Consistency checks for stacksize environment parameter are next.
 
  | Maximum stacksize for task 0: unlimited
  | Maximum stacksize for task 1: unlimited
  | Maximum stacksize for task 2: unlimited
  | Maximum stacksize for task 3: unlimited
  | Maximum stacksize for task 4: unlimited
  | Maximum stacksize for task 5: unlimited
  | Maximum stacksize for task 6: unlimited
  | Maximum stacksize for task 7: unlimited
  | Maximum stacksize for task 8: unlimited
  | Maximum stacksize for task 9: unlimited
  | Maximum stacksize for task 10: unlimited
  | Maximum stacksize for task 11: unlimited
  | Maximum stacksize for task 12: unlimited
  | Maximum stacksize for task 13: unlimited
  | Maximum stacksize for task 14: unlimited
  | Maximum stacksize for task 15: unlimited
  | Maximum stacksize for task 16: unlimited
  | Maximum stacksize for task 17: unlimited
  | Maximum stacksize for task 18: unlimited
  | Maximum stacksize for task 19: unlimited
  | Current stacksize for task 0: unlimited
  | Current stacksize for task 1: unlimited
  | Current stacksize for task 2: unlimited
  | Current stacksize for task 3: unlimited
  | Current stacksize for task 4: unlimited
  | Current stacksize for task 5: unlimited
  | Current stacksize for task 6: unlimited
  | Current stacksize for task 7: unlimited
  | Current stacksize for task 8: unlimited
  | Current stacksize for task 9: unlimited
  | Current stacksize for task 10: unlimited
  | Current stacksize for task 11: unlimited
  | Current stacksize for task 12: unlimited
  | Current stacksize for task 13: unlimited
  | Current stacksize for task 14: unlimited
  | Current stacksize for task 15: unlimited
  | Current stacksize for task 16: unlimited
  | Current stacksize for task 17: unlimited
  | Current stacksize for task 18: unlimited
  | Current stacksize for task 19: unlimited
 
  Consistency checks for the contents of control.in are next.
 
  HSE06 screening parameters: omega_HF  =      0.11000000 bohr^-1, and
                              omega_PBE =      0.11000000 bohr^-1.
  MPI_IN_PLACE appears to work with this MPI implementation.
  | Keeping use_mpi_in_place .true. (see manual).
  Explicit treatment of the Coulomb operator is needed, but the RI method is not specified.
  Coulomb operator: Defaulting to 'LVL fast' resolution of identity - RI_type = LVL_fast
  Species Ba: Using default value for prodbas_acc =   1.000000E-04.
  Species Ba: Using default value max_l_prodbas =    20.
  Species Zr: Using default value for prodbas_acc =   1.000000E-04.
  Species Zr: Using default value max_l_prodbas =    20.
  Species S: Using default value for prodbas_acc =   1.000000E-04.
  Species S: Using default value max_l_prodbas =    20.
  Target number of points in a grid batch is not set. Defaulting to  100
  Method for grid partitioning is not set. Defaulting to parallel hash+maxmin partitioning.
  Batch size limit is not set. Defaulting to    200
  By default, will store active basis functions for each batch.
  If in need of memory, prune_basis_once .false. can be used to disable this option.
  communication_type for Hartree potential was not specified.
  Defaulting to calc_hartree .
  Defaulting to Pulay charge density mixer.
  Pulay mixer: Number of relevant iterations not set.
  Defaulting to    8 iterations.
  Pulay mixer: Number of initial linear mixing iterations not set.
  Defaulting to    0 iterations.
  Work space size for distributed Hartree potential not set.
  Defaulting to   0.200000E+03 MB.
  Mixing parameter for charge density mixing has not been set.
  Using default: charge_mix_param =     0.0500.
  The mixing parameter will be adjusted in iteration number     2 of the first full s.c.f. cycle only.
  Algorithm-dependent basis array size parameters:
  | n_max_pulay                         :        8
  Maximum number of self-consistency iterations not provided.
  Presetting  1000 iterations.
  Presetting      1001 iterations before the initial mixing cycle
  is restarted anyway using the sc_init_iter criterion / keyword.
  Presetting a factor      1.000 between actual scf density residual
  and density convergence criterion sc_accuracy_rho below which sc_init_iter
  takes no effect.
  Calculation of forces was not defined in control.in. No forces will be calculated.
  Geometry relaxation not requested: no relaxation will be performed.
  No accuracy limit for integral partition fn. given. Defaulting to  0.1000E-14.
  No threshold value for u(r) in integrations given. Defaulting to  0.1000E-05.
  No accuracy for occupation numbers given. Defaulting to  0.1000E-12.
  No threshold value for occupation numbers given. Defaulting to  0.0000E+00.
  No accuracy for fermi level given. Defaulting to  0.1000E-19.
  Maximum # of iterations to find E_F not set. Defaulting to  200.
  Preferred method for the eigenvalue solver ('KS_method') not specified in 'control.in'.
  Defaulting to serial version, LAPACK (via ELSI), since more k-points than CPUs available.
  Will not use alltoall communication since running on < 1024 CPUs.
  Threshold for basis singularities not set.
  Default threshold for basis singularities:  0.1000E-04
  partition_type (choice of integration weights) for integrals was not specified.
  | Using a version of the partition function of Stratmann and coworkers ('stratmann_sparse').
  | At each grid point, the set of atoms used to build the partition table is smoothly restricted to
  | only those atoms whose free-atom density would be non-zero at that grid point.
  Partitioning for Hartree potential was not defined. Using partition_type for integrals.
  | Adjusted default value of keyword multip_moments_threshold to:       0.10000000E-11
  | This value may affect high angular momentum components of the Hartree potential in periodic systems.
  Threshold for auxiliary basis singularities not set.
  Default threshold for auxiliary basis singularities:  0.1000E-04
  No q(lm)/r^(l+1) cutoff set for long-range Hartree potential.
  | Using default value of  0.100000E-09 .
  | Verify using the multipole_threshold keyword.
  Defaulting to new monopole extrapolation.
  Density update method: automatic selection selected.
  Using density matrix based charge density update.
  Using density matrix based charge density update.
  Using packed matrix style: index .
 * NOTE: You are attempting to run a periodic structure with an exchange treatment
 * which requires a two-electron Coulomb operator (Hartree-Fock or a hybrid functional).
 * The present implementation is reliable to our knowledge, but some things
 * (like band structure output, or perhaps the auxilary basis set for small
 * orbital basis sets - see the "for_aux" keyword) require extra care.
 * Please let us know if you encounter any trouble.
  Coulomb operator: Defaulting to screening threshold for four-center integrals:   0.100000E-06
  Coulomb operator: Defaulting to screening threshold for Coulomb matrix:   0.100000E-09
  Coulomb operator: Defaulting to 'LVL_fast' resolution of identity - RI_type = LVL_fast 
  No other resolution of identity version is supported for periodic boundary conditions at present.
  Coulomb operator: Defaulting to logarithmic spherical Bessel transform integrals (use_logsbt .true.).
  HSE with LVL_fast: Also defaulting to logarithmic spherical Bessel transform integrals.
  Defaulting to use full k-point grid (no symmetry reduction).
  Charge integration errors on the 3D integration grid will be compensated
  by explicit normalization and distribution of residual charges.
  Use the "compensate_multipole_errors" flag to change this behaviour.
  LVL not implemented with density matrix yet
  -> switching to transformed overlap
  LVL probably works better with logsbt
  Default to 1D ("use_logsbt") integrations for auxiliary 2-center integrals.
  Default onset of logarithmic r-grid for SBT is -38.000000000000
  Default onset of logarithmic k-grid for SBT is -25.000000000000
  Default range of logarithmic r- and k-grid for SBT is  45.000000000000
  Default number of logarithmic r- and k-grid for SBT is   4096
  * Use logSBT for radial HSE integration, too
 * NOTE: Band structure and exact exchange are requested at the same time,
 * and exx_band_structure_version is set to 1. 
 * exx_band_structure_version 1 is evaluated in a real-space formalism. It is fast
 * and the preferred version. HOWEVER, it does require a sufficiently
 * dense 'k_grid' to be used for the preceding s.c.f. cycle.
 * If the 'k_grid used for s.c.f. is NOT dense enough, the real-
 * space approach will produce bands that are OBVIOUSLY incorrect.
 * You cannot miss this - they won't look 'slightly' correct. In
 * that case, please try to increase the 'k_grid' parameters used
 * for the s.c.f. cycle. In particular, please avoid k_grid dimensions 
 * of '1' (one) in any dimension. We apologize for this inconvenience.
 * On the bright side, if you use exx_band_structure_version 1 
 * correctly, it will give reliable results without much overhead.
 * 
 * If your band structure does not look reasonable, increase the s.c.f. k-point
 * grid density. Again, it is especially recommended that you avoid dimensions of 1 when
 * specifying k_grid and using this option, even for large unit cells where a
 * gamma-point-only k-grid would be sufficient to converge the accuracy of the
 * calculation.
 * 
 * Please test (e.g., by comparing results from different k_grid settings) when in any doubt.
  Set 'collect_eigenvectors' to be '.true.' for all serial calculations. This is mandatory.
  Set 'collect_eigenvectors' to be '.true.' for KS_method lapack_fast and serial.
 
  Consistency checks for the contents of geometry.in are next.
 

  Range separation radius for Ewald summation (hartree_convergence_parameter):      4.58503596 bohr.
  Number of empty states per atom not set in control.in - providing a guess from actual geometry.
  | Total number of empty states used during s.c.f. cycle:        9
  If you use a very high smearing, use empty_states (per atom!) in control.in to increase this value.

  Structure-dependent array size parameters: 
  | Maximum number of distinct radial functions  :       44
  | Maximum number of basis functions            :       99
  | Number of Kohn-Sham states (occupied + empty):       45
------------------------------------------------------------
  Setting Coulomb cut-width to  1.091868692359 * rcut.
  Setting Coulomb cutting radius rcut to 26.834183640779 A.

------------------------------------------------------------
          Preparing all fixed parts of the calculation.
------------------------------------------------------------
  Determining machine precision:
    2.225073858507201E-308
  Setting up grids for atomic and cluster calculations.

  Creating wave function, potential, and density for free atoms.

  Species: Ba

  List of occupied orbitals and eigenvalues:
    n    l              occ      energy [Ha]    energy [eV]
    1    0           2.0000     -1428.759176    -38878.5153
    2    0           2.0000      -218.156321     -5936.3355
    3    0           2.0000       -45.759571     -1245.1813
    4    0           2.0000        -8.961354      -243.8508
    5    0           2.0000        -1.235311       -33.6145
    6    0           2.0000        -0.117372        -3.1939
    2    1           6.0000      -195.503522     -5319.9215
    3    1           6.0000       -38.566500     -1049.4479
    4    1           6.0000        -6.648037      -180.9023
    5    1           6.0000        -0.686503       -18.6807
    3    2          10.0000       -28.146810      -765.9137
    4    2          10.0000        -3.294406       -89.6453


  Species: Zr

  List of occupied orbitals and eigenvalues:
    n    l              occ      energy [Ha]    energy [eV]
    1    0           2.0000      -668.722933    -18196.8768
    2    0           2.0000       -91.076987     -2478.3309
    3    0           2.0000       -14.873383      -404.7254
    4    0           2.0000        -1.994212       -54.2653
    5    0           2.0000        -0.156460        -4.2575
    2    1           6.0000       -81.194469     -2209.4139
    3    1           6.0000       -11.667913      -317.5001
    4    1           6.0000        -1.184217       -32.2242
    3    2          10.0000        -6.414313      -174.5423
    4    2           2.0000        -0.125045        -3.4027


  Species: S

  List of occupied orbitals and eigenvalues:
    n    l              occ      energy [Ha]    energy [eV]
    1    0           2.0000       -88.680731     -2413.1255
    2    0           2.0000        -7.781719      -211.7513
    3    0           2.0000        -0.633662       -17.2428
    2    1           6.0000        -5.751976      -156.5192
    3    1           4.0000        -0.257086        -6.9957


  Adding cutoff potential to free-atom effective potential.
  Creating fixed part of basis set: Ionic, confined, hydrogenic.
 
  Ba                   ion:

  List of free ionic orbitals and eigenvalues:
    n    l      energy [Ha]    energy [eV]
    1    0     -1428.980456    -38884.5366
    2    0      -218.370478     -5942.1630
    3    0       -45.972614     -1250.9785
    4    0        -9.173714      -249.6295
    5    0        -1.445296       -39.3285
    6    0        -0.278663        -7.5828
    2    1      -195.717553     -5325.7456
    3    1       -38.779502     -1055.2439
    4    1        -6.860306      -186.6784
    5    1        -0.894905       -24.3516
    3    2       -28.359770      -771.7086
    4    2        -3.506466       -95.4158


  List of ionic basis orbitals and eigenvalues:
    n    l      energy [Ha]    energy [eV]    outer radius [A]
    5    2        -0.260030        -7.0758       7.007670
    4    3        -0.142743        -3.8842       7.093864

 
  Ba                   hydrogenic:
 
  List of hydrogenic basis orbitals: 
    n    l      effective z      eigenvalue [eV]  inner max. [A]     outer max. [A]     outer radius [A]   
    3    1         2.700000       -11.0183           0.585865           2.360755           7.358861
    4    0         3.300000        -9.1387           0.118110           3.896996           7.449375
    4    3         5.800000       -28.6057           1.465516           1.465516           5.905331
    5    4         7.400000       -29.8017           1.782126           1.782126           6.354768
 
 
  Zr                   ion:

  List of free ionic orbitals and eigenvalues:
    n    l      energy [Ha]    energy [eV]
    1    0      -669.421026    -18215.8729
    2    0       -91.769634     -2497.1788
    3    0       -15.560469      -423.4219
    4    0        -2.663352       -72.4735
    5    0        -0.640863       -17.4388
    2    1       -81.886574     -2228.2470
    3    1       -12.354892      -336.1937
    4    1        -1.844122       -50.1811
    3    2        -7.101714      -193.2475
    4    2        -0.726930       -19.7808


  List of ionic basis orbitals and eigenvalues:
    n    l      energy [Ha]    energy [eV]    outer radius [A]
    4    2        -0.726920       -19.7805       5.008334
    5    1        -0.469561       -12.7774       5.455794
    5    0        -0.640774       -17.4363       5.389503

 
  Zr                   hydrogenic:
 
  List of hydrogenic basis orbitals: 
    n    l      effective z      eigenvalue [eV]  inner max. [A]     outer max. [A]     outer radius [A]   
    4    3         7.200000       -44.0822           1.169212           1.169212           5.008334
    5    4        10.400000       -58.8635           1.273673           1.273673           4.887365
 
 
  S                    ion:

  List of free ionic orbitals and eigenvalues:
    n    l      energy [Ha]    energy [eV]
    1    0       -89.703778     -2440.9640
    2    0        -8.775428      -238.7916
    3    0        -1.470343       -40.0101
    2    1        -6.747660      -183.6132
    3    1        -1.048627       -28.5346


  List of ionic basis orbitals and eigenvalues:
    n    l      energy [Ha]    energy [eV]    outer radius [A]
    3    2        -0.495605       -13.4861       5.386362
    3    0        -1.470336       -40.0099       3.967934

 
  S                    hydrogenic:
 
  List of hydrogenic basis orbitals: 
    n    l      effective z      eigenvalue [eV]  inner max. [A]     outer max. [A]     outer radius [A]   
    2    1         1.800000       -11.0118           1.168531           1.168531           5.452614
    4    3         7.000000       -41.6672           1.212182           1.212182           5.066981
    4    2         6.200000       -32.6848           0.582121           1.814567           5.386362
    5    4        10.800000       -63.4785           1.227092           1.227092           4.766538
 
  Creating atomic-like basis functions for current effective potential.

  Species Ba                  :

  List of atomic basis orbitals and eigenvalues:
    n    l      energy [Ha]    energy [eV]    outer radius [A]
    1    0     -1428.759176    -38878.5153       0.181180
    2    0      -218.156321     -5936.3355       0.481781
    3    0       -45.759571     -1245.1813       1.053516
    4    0        -8.961354      -243.8508       2.303735
    5    0        -1.235311       -33.6145       5.905331
    6    0        -0.117372        -3.1939       7.358861
    2    1      -195.503522     -5319.9215       0.493705
    3    1       -38.566500     -1049.4479       1.119920
    4    1        -6.648037      -180.9023       2.603304
    5    1        -0.686503       -18.6807       6.838410
    3    2       -28.146810      -765.9137       1.250174
    4    2        -3.294406       -89.6453       3.490975


  Species Zr                  :

  List of atomic basis orbitals and eigenvalues:
    n    l      energy [Ha]    energy [eV]    outer radius [A]
    1    0      -668.722933    -18196.8768       0.259930
    2    0       -91.076987     -2478.3309       0.725827
    3    0       -14.873383      -404.7254       1.771771
    4    0        -1.994212       -54.2653       4.541709
    5    0        -0.156460        -4.2575       5.455794
    2    1       -81.194469     -2209.4139       0.743792
    3    1       -11.667913      -317.5001       1.930067
    4    1        -1.184217       -32.2242       5.008334
    3    2        -6.414313      -174.5423       2.434714
    4    2        -0.125045        -3.4027       5.389503


  Species S                   :

  List of atomic basis orbitals and eigenvalues:
    n    l      energy [Ha]    energy [eV]    outer radius [A]
    1    0       -88.680731     -2413.1255       0.682391
    2    0        -7.781719      -211.7513       2.289014
    3    0        -0.633662       -17.2428       5.256262
    2    1        -5.751976      -156.5192       2.555240
    3    1        -0.257086        -6.9957       5.386362

  Assembling full basis from fixed parts.
  | Species Ba :   atomic orbital   1 s accepted.
  | Species Ba :   atomic orbital   2 s accepted.
  | Species Ba :   atomic orbital   3 s accepted.
  | Species Ba :   atomic orbital   4 s accepted.
  | Species Ba :   atomic orbital   5 s accepted.
  | Species Ba :   atomic orbital   6 s accepted.
  | Species Ba :    hydro orbital   4 s accepted.
  | Species Ba :   atomic orbital   2 p accepted.
  | Species Ba :   atomic orbital   3 p accepted.
  | Species Ba :   atomic orbital   4 p accepted.
  | Species Ba :   atomic orbital   5 p accepted.
  | Species Ba :    hydro orbital   3 p accepted.
  | Species Ba :   atomic orbital   3 d accepted.
  | Species Ba :   atomic orbital   4 d accepted.
  | Species Ba :    ionic orbital   5 d accepted.
  | Species Ba :    hydro orbital   4 f accepted.
  | Species Ba :    ionic orbital   4 f accepted.
  | Species Ba :    hydro orbital   5 g accepted.
  | Species Zr :   atomic orbital   1 s accepted.
  | Species Zr :   atomic orbital   2 s accepted.
  | Species Zr :   atomic orbital   3 s accepted.
  | Species Zr :   atomic orbital   4 s accepted.
  | Species Zr :    ionic orbital   5 s accepted.
  | Species Zr :   atomic orbital   5 s accepted.
  | Species Zr :   atomic orbital   2 p accepted.
  | Species Zr :   atomic orbital   3 p accepted.
  | Species Zr :   atomic orbital   4 p accepted.
  | Species Zr :    ionic orbital   5 p accepted.
  | Species Zr :   atomic orbital   3 d accepted.
  | Species Zr :    ionic orbital   4 d accepted.
  | Species Zr :   atomic orbital   4 d accepted.
  | Species Zr :    hydro orbital   4 f accepted.
  | Species Zr :    hydro orbital   5 g accepted.
  | Species S :   atomic orbital   1 s accepted.
  | Species S :   atomic orbital   2 s accepted.
  | Species S :    ionic orbital   3 s accepted.
  | Species S :   atomic orbital   3 s accepted.
  | Species S :   atomic orbital   2 p accepted.
  | Species S :   atomic orbital   3 p accepted.
  | Species S :    hydro orbital   2 p accepted.
  | Species S :    ionic orbital   3 d accepted.
  | Species S :    hydro orbital   4 d accepted.
  | Species S :    hydro orbital   4 f accepted.
  | Species S :    hydro orbital   5 g accepted.
 
  Basis size parameters after reduction:
  | Total number of radial functions:       44
  | Total number of basis functions :       99
 
  Per-task memory consumption for arrays in subroutine allocate_ext:
  |          16.450544MB.
  Testing on-site integration grid accuracy.
  |  Species  Function  <phi|h_atom|phi> (log., in eV)  <phi|h_atom|phi> (rad., in eV)
           1        1             -38878.5152842456             -38878.5102682711
           1        2              -5936.3355416432              -5936.3354463181
           1        3              -1245.1812725370              -1245.1812651319
           1        4               -243.8508498583               -243.8508475766
           1        5                -33.6145129113                -33.6145123744
           1        6                 -3.1953474132                 -3.1940995993
           1        7                  1.7217240859                  1.7400532086
           1        8              -5319.9215180603              -5319.9215128547
           1        9              -1049.4478540965              -1049.4478516474
           1       10               -180.9022912879               -180.9022896989
           1       11                -18.6806852844                -18.6806849603
           1       12                 -0.6584997172                 -0.6579606663
           1       13               -765.9136710812               -765.9136703559
           1       14                -89.6453457527                -89.6453448903
           1       15                 -1.8801763382                 -1.8802515933
           1       16                  8.1569476582                  8.1569486797
           1       17                  8.6054070843                  8.6053383614
           1       18                 17.5600091881                 17.5599879188
           2       19             -18196.8768435665             -18196.8755705220
           2       20              -2478.3309144498              -2478.3308916069
           2       21               -404.7253557491               -404.7253534742
           2       22                -54.2652640714                -54.2652635286
           2       23                 -3.7119764275                 -3.7119846577
           2       24                  4.5875772639                  4.5868905659
           2       25              -2209.4139097225              -2209.4139071812
           2       26               -317.5000788444               -317.5000777556
           2       27                -32.2241784576                -32.2241781542
           2       28                 -0.3319152745                 -0.3319660629
           2       29               -174.5423275335               -174.5423272575
           2       30                 -3.0504029429                 -3.0504025329
           2       31                  4.9970437712                  4.9966978803
           2       32                 16.8632595236                 16.8632598612
           2       33                 37.0867992037                 37.0867988501
           3       34              -2413.1254568977              -2413.1254096663
           3       35               -211.7513411281               -211.7513404762
           3       36                -16.9725280787                -16.9725279206
           3       37                  7.6024436204                  7.6024549059
           3       38               -156.5192206929               -156.5192205451
           3       39                 -6.9959757887                 -6.9959777655
           3       40                  6.8896462808                  6.8895564741
           3       41                  6.0214250550                  6.0214220200
           3       42                 19.6206468977                 19.6206494558
           3       43                 24.7008710786                 24.7008710738
           3       44                 47.5292252001                 47.5292260486

  Preparing densities etc. for the partition functions (integrals / Hartree potential).

  Preparations completed.
  max(cpu_time)          :      0.573 s.
  Wall clock time (cpu1) :      0.573 s.
------------------------------------------------------------

------------------------------------------------------------
          Begin self-consistency loop: Initialization.

          Date     :  20220509, Time     :  184646.376
------------------------------------------------------------

  Initializing index lists of integration centers etc. from given atomic structure:
  Mapping all atomic coordinates to central unit cell.

  Initializing the k-points
  | Number of k-points                             :      1728
  | Consuming      46656 KiB for k_phase_exx.
  The eigenvectors in the calculations are COMPLEX.
  | K-points in task   0:        86
  | K-points in task   1:        87
  | K-points in task   2:        87
  | K-points in task   3:        87
  | K-points in task   4:        87
  | K-points in task   5:        87
  | K-points in task   6:        87
  | K-points in task   7:        87
  | K-points in task   8:        87
  | K-points in task   9:        86
  | K-points in task  10:        86
  | K-points in task  11:        86
  | K-points in task  12:        86
  | K-points in task  13:        86
  | K-points in task  14:        86
  | K-points in task  15:        86
  | K-points in task  16:        86
  | K-points in task  17:        86
  | K-points in task  18:        86
  | K-points in task  19:        86
  | Number of basis functions in the Hamiltonian integrals :      4598
  | Number of basis functions in a single unit cell        :        99
  | Number of centers in hartree potential         :      1010
  | Number of centers in hartree multipole         :       606
  | Number of centers in electron density summation:       432
  | Number of centers in basis integrals           :       453
  | Number of centers in integrals                 :       137
  | Number of centers in hamiltonian               :       582
  | Consuming       9666 KiB for k_phase.
  | Number of super-cells (origin) [n_cells]                     :        2197
  | Number of super-cells (after PM_index) [n_cells]             :         358
  | Number of super-cells in hamiltonian [n_cells_in_hamiltonian]:         358
  | Size of matrix packed + index [n_hamiltonian_matrix_size] :      390937
  | Estimated reciprocal-space cutoff momentum G_max:         2.09134158 bohr^-1 .
  | Reciprocal lattice points for long-range Hartree potential:      58
  Partitioning the integration grid into batches with parallel hashing+maxmin method.
  | Number of batches:      654
  | Maximal batch size:     139
  | Minimal batch size:      49
  | Average batch size:      83.902
  | Standard deviation of batch sizes:      20.012

  Integration load balanced across    20 MPI tasks.
  Work distribution over tasks is as follows:
  Task     0 has       2695 integration points.
  Task     1 has       2777 integration points.
  Task     2 has       2768 integration points.
  Task     3 has       2769 integration points.
  Task     4 has       2779 integration points.
  Task     5 has       2760 integration points.
  Task     6 has       2714 integration points.
  Task     7 has       2700 integration points.
  Task     8 has       2770 integration points.
  Task     9 has       2772 integration points.
  Task    10 has       2717 integration points.
  Task    11 has       2732 integration points.
  Task    12 has       2686 integration points.
  Task    13 has       2774 integration points.
  Task    14 has       2765 integration points.
  Task    15 has       2774 integration points.
  Task    16 has       2777 integration points.
  Task    17 has       2690 integration points.
  Task    18 has       2766 integration points.
  Task    19 has       2687 integration points.
  Initializing partition tables, free-atom densities, potentials, etc. across the integration grid (initialize_grid_storage).
  | initialize_grid_storage: Actual outermost partition radius vs. multipole_radius_free
  | (-- VB: in principle, multipole_radius_free should be larger, hence this output)
  | Species        1: Confinement radius =              8.000000000000000 AA, multipole_radius_free =              8.016324652127386 AA.
  | Species        1: outer_partition_radius set to              8.016324652127386 AA .
  | Species        2: Confinement radius =              6.000000000000000 AA, multipole_radius_free =              6.016333975203386 AA.
  | Species        2: outer_partition_radius set to              6.016333975203386 AA .
  | Species        3: Confinement radius =              6.000000000000000 AA, multipole_radius_free =              6.012827091137924 AA.
  | Species        3: outer_partition_radius set to              6.012827091137924 AA .
  | The sparse table of interatomic distances needs       1463.85 kbyte instead of      1641.67 kbyte of memory.
  | Net number of integration points:    54872
  | of which are non-zero points    :    46608
  | Numerical average free-atom electrostatic potential    :    -16.68800465 eV
  Renormalizing the initial density to the exact electron count on the 3D integration grid.
  | Initial density: Formal number of electrons (from input files) :      72.0000000000
  | Integrated number of electrons on 3D grid     :      72.0011225460
  | Charge integration error                      :       0.0011225460
  | Normalization factor for density and gradient :       0.9999844093
  Renormalizing the free-atom superposition density to the exact electron count on the 3D integration grid.
  | Formal number of electrons (from input files) :      72.0000000000
  | Integrated number of electrons on 3D grid     :      72.0011225460
  | Charge integration error                      :       0.0011225460
  | Normalization factor for density and gradient :       0.9999844093
  Obtaining max. number of non-zero basis functions in each batch (get_n_compute_maxes).
  | Maximal number of non-zero basis functions:     1484 in task     0
  | Maximal number of non-zero basis functions:     1495 in task     1
  | Maximal number of non-zero basis functions:     1486 in task     2
  | Maximal number of non-zero basis functions:     1492 in task     3
  | Maximal number of non-zero basis functions:     1493 in task     4
  | Maximal number of non-zero basis functions:     1484 in task     5
  | Maximal number of non-zero basis functions:     1488 in task     6
  | Maximal number of non-zero basis functions:     1478 in task     7
  | Maximal number of non-zero basis functions:     1483 in task     8
  | Maximal number of non-zero basis functions:     1486 in task     9
  | Maximal number of non-zero basis functions:     1484 in task    10
  | Maximal number of non-zero basis functions:     1463 in task    11
  | Maximal number of non-zero basis functions:     1494 in task    12
  | Maximal number of non-zero basis functions:     1488 in task    13
  | Maximal number of non-zero basis functions:     1504 in task    14
  | Maximal number of non-zero basis functions:     1498 in task    15
  | Maximal number of non-zero basis functions:     1493 in task    16
  | Maximal number of non-zero basis functions:     1463 in task    17
  | Maximal number of non-zero basis functions:     1481 in task    18
  | Maximal number of non-zero basis functions:     1493 in task    19
  Allocating        5.846 MB for KS_eigenvector_complex
  Integrating Hamiltonian matrix: batch-based integration.
  Time summed over all CPUs for integration: real work       15.539 s, elapsed       16.487 s
  Integrating overlap matrix.
  Time summed over all CPUs for integration: real work       11.877 s, elapsed       12.803 s

  Updating Kohn-Sham eigenvalues and eigenvectors using ELSI and the (modified) LAPACK eigensolver.
  Singularity check in k-point 20, task 0 (analysis for other k-points/tasks may follow below):
  Overlap matrix is not singular
  | Lowest and highest eigenvalues :  0.6268E-03,  0.5414E+01
  Finished singularity check of overlap matrix
  | Time :     0.002 s
  Starting LAPACK eigensolver
  Finished Cholesky decomposition
  | Time :     0.000 s
  Finished transformation to standard eigenproblem
  | Time :     0.001 s
  Finished solving standard eigenproblem
  | Time :     0.001 s
  Finished back-transformation of eigenvectors
  | Time :     0.000 s

  Obtaining occupation numbers and chemical potential using ELSI.
  | Chemical potential (Fermi level):    -6.93131973 eV
  Writing Kohn-Sham eigenvalues.
  K-point:       1 at    0.000000    0.000000    0.000000 (in units of recip. lattice)

  State    Occupation    Eigenvalue [Ha]    Eigenvalue [eV]
      1       2.00000       -1428.766624       -38878.71796
      2       2.00000        -218.163788        -5936.53871
      3       2.00000        -195.510971        -5320.12420
      4       2.00000        -195.510971        -5320.12420
      5       2.00000        -195.510971        -5320.12420
      6       2.00000         -88.744820        -2414.86941
      7       2.00000         -45.767229        -1245.38966
      8       2.00000         -38.574156        -1049.65620
      9       2.00000         -38.574156        -1049.65620
     10       2.00000         -38.574156        -1049.65620
     11       2.00000         -28.154438         -766.12124
     12       2.00000         -28.154438         -766.12124
     13       2.00000         -28.154438         -766.12123
     14       2.00000         -28.154438         -766.12123
     15       2.00000         -28.154438         -766.12123
     16       2.00000          -8.969930         -244.08421
     17       2.00000          -7.848686         -213.57360
     18       2.00000          -6.656782         -181.14026
     19       2.00000          -6.656782         -181.14026
     20       2.00000          -6.656782         -181.14026
     21       2.00000          -5.818643         -158.33333
     22       2.00000          -5.818643         -158.33333
     23       2.00000          -5.818643         -158.33333
     24       2.00000          -3.303596          -89.89543
     25       2.00000          -3.303596          -89.89543
     26       2.00000          -3.303557          -89.89436
     27       2.00000          -3.303557          -89.89436
     28       2.00000          -3.303557          -89.89436
     29       2.00000          -1.255274          -34.15775
     30       2.00000          -0.742159          -20.19516
     31       2.00000          -0.706787          -19.23266
     32       2.00000          -0.706787          -19.23266
     33       2.00000          -0.706787          -19.23266
     34       2.00000          -0.354548           -9.64775
     35       2.00000          -0.354548           -9.64775
     36       2.00000          -0.354548           -9.64775
     37       0.00000          -0.189376           -5.15318
     38       0.00000          -0.171458           -4.66562
     39       0.00000          -0.171458           -4.66562
     40       0.00000          -0.171458           -4.66562
     41       0.00000          -0.138526           -3.76949
     42       0.00000          -0.138526           -3.76949
     43       0.00000          -0.022930           -0.62395
     44       0.00000           0.064993            1.76856
     45       0.00000           0.064993            1.76856

  What follows are estimated values for band gap, HOMO, LUMO, etc.
  | They are estimated on a discrete k-point grid and not necessarily exact.
  | For converged numbers, create a DOS and/or band structure plot on a denser k-grid.

  Highest occupied state (VBM) at     -9.64775470 eV (relative to internal zero)
  | Occupation number:      2.00000000
  | K-point:       1 at    0.000000    0.000000    0.000000 (in units of recip. lattice)

  Lowest unoccupied state (CBM) at    -6.54543018 eV (relative to internal zero)
  | Occupation number:      0.00000005
  | K-point:     937 at    0.500000    0.500000    0.000000 (in units of recip. lattice)

  ESTIMATED overall HOMO-LUMO gap:      3.10232452 eV between HOMO at k-point 1 and LUMO at k-point 937
  | This appears to be an indirect band gap.
  | Smallest direct gap :      3.13235255 eV for k_point 871 at    0.500000    0.000000    0.500000 (in units of recip. lattice)
  The gap value is above 0.2 eV. Unless you are using a very sparse k-point grid,
  this system is most likely an insulator or a semiconductor.
  Calculating total energy contributions from superposition of free atom densities.

  Total energy components:
  | Sum of eigenvalues            :       -5400.99447346 Ha     -146968.53729961 eV
  | XC energy correction          :        -224.84263252 Ha       -6118.27932560 eV
  | XC potential correction       :         293.20114691 Ha        7978.40914430 eV
  | Free-atom electrostatic energy:       -3341.41706850 Ha      -90924.58462576 eV
  | Hartree energy correction     :           0.00000000 Ha           0.00000000 eV
  | Entropy correction            :          -0.00000000 Ha          -0.00000000 eV
  | ---------------------------
  | Total energy                  :       -8674.05302757 Ha     -236032.99210668 eV
  | Total energy, T -> 0          :       -8674.05302757 Ha     -236032.99210668 eV  <-- do not rely on this value for anything but (periodic) metals
  | Electronic free energy        :       -8674.05302757 Ha     -236032.99210668 eV

  Derived energy quantities:
  | Kinetic energy                :        9141.18242313 Ha      248744.22970047 eV
  | Electrostatic energy          :      -17590.39281818 Ha     -478658.94248154 eV
  | Energy correction for multipole
  | error in Hartree potential    :           0.00000000 Ha           0.00000000 eV
  | Sum of eigenvalues per atom                           :      -73484.26864981 eV
  | Total energy (T->0) per atom                          :     -118016.49605334 eV  <-- do not rely on this value for anything but (periodic) metals
  | Electronic free energy per atom                       :     -118016.49605334 eV
  
  --------------------------------------------
  Constructing auxiliary basis (full product) ...
  
  Product basis:
  | charge radius: extent of product basis function
  | field radius: extent of its Coulomb potential
  | Species   l  charge radius    field radius
  |    Ba     0     1.028069 A      2.448943 A
  |    Ba     0     1.395576 A      4.915929 A
  |    Ba     0     1.697077 A      3.993452 A
  |    Ba     0     2.635325 A      4.092295 A
  |    Ba     0     3.711017 A      4.193585 A
  |    Ba     0     5.162292 A      5.162292 A
  |    Ba     0     6.201278 A      6.201278 A
  |    Ba     0     6.755320 A      6.755320 A
  |    Ba     0     7.007670 A      7.007670 A
  |    Ba     0     7.181119 A     11.854168 A
  |    Ba     0     7.269447 A     15.137562 A
  |    Ba     0     7.181119 A     17.745004 A
  |    Ba     0     7.358861 A     23.220921 A
  |    Ba     0     7.358861 A     24.988196 A
  |    Ba     0     7.449375 A     26.240486 A
  |    Ba     0     7.449375 A     26.889973 A
  |    Ba     0     7.449375 A     27.220720 A
  |    Ba     0     7.449375 A     26.889973 A
  |    Ba     1     1.092870 A      1.092870 A
  |    Ba     1     1.447709 A      1.447709 A
  |    Ba     1     1.697077 A      1.697077 A
  |    Ba     1     2.275743 A      2.275743 A
  |    Ba     1     2.978013 A      2.978013 A
  |    Ba     1     3.756663 A      3.802870 A
  |    Ba     1     5.225788 A      5.225788 A
  |    Ba     1     6.512057 A      6.512057 A
  |    Ba     1     6.922523 A      6.922523 A
  |    Ba     1     7.093864 A      7.093864 A
  |    Ba     1     7.181119 A     11.015789 A
  |    Ba     1     7.269447 A     16.692827 A
  |    Ba     1     7.358861 A     21.578636 A
  |    Ba     1     7.358861 A     23.795670 A
  |    Ba     1     7.358861 A     25.295551 A
  |    Ba     1     7.449375 A     26.240486 A
  |    Ba     1     7.449375 A     26.889973 A
  |    Ba     1     7.449375 A     26.889973 A
  |    Ba     2     1.557890 A      1.557890 A
  |    Ba     2     1.871438 A      1.871438 A
  |    Ba     2     2.509558 A      2.509558 A
  |    Ba     2     3.365263 A      3.365263 A
  |    Ba     2     4.915929 A      4.915929 A
  |    Ba     2     6.125929 A      6.125929 A
  |    Ba     2     6.922523 A      6.922523 A
  |    Ba     2     7.093864 A      7.093864 A
  |    Ba     2     7.269447 A      9.282954 A
  |    Ba     2     7.358861 A     19.568162 A
  |    Ba     2     7.358861 A     23.220921 A
  |    Ba     2     7.449375 A     23.506539 A
  |    Ba     2     7.449375 A     25.606687 A
  |    Ba     2     7.449375 A     26.563244 A
  |    Ba     2     7.449375 A     26.889973 A
  |    Ba     3     1.312826 A      1.312826 A
  |    Ba     3     1.917758 A      1.917758 A
  |    Ba     3     2.733770 A      2.733770 A
  |    Ba     3     4.245166 A      4.245166 A
  |    Ba     3     5.977966 A     50.160489 A
  |    Ba     3     6.755320 A      6.755320 A
  |    Ba     3     7.007670 A      7.007670 A
  |    Ba     3     7.093864 A      7.093864 A
  |    Ba     3     7.181119 A     10.749719 A
  |    Ba     3     7.269447 A     14.239991 A
  |    Ba     3     7.269447 A     18.407882 A
  |    Ba     3     7.269447 A     23.220921 A
  |    Ba     3     7.358861 A     24.684575 A
  |    Ba     3     7.358861 A     25.921649 A
  |    Ba     3     7.358861 A     26.563244 A
  |    Ba     3     7.358861 A     27.220720 A
  |    Ba     4     2.540425 A      2.540425 A
  |    Ba     4     2.635325 A      2.635325 A
  |    Ba     4     4.245166 A      4.245166 A
  |    Ba     4     5.692676 A      5.692676 A
  |    Ba     4     6.432931 A      6.432931 A
  |    Ba     4     6.673239 A      6.673239 A
  |    Ba     4     6.838410 A      6.838410 A
  |    Ba     4     6.922523 A     13.560408 A
  |    Ba     4     7.007670 A     20.052500 A
  |    Ba     4     7.093864 A     23.506539 A
  |    Ba     4     7.093864 A     24.988196 A
  |    Ba     4     7.181119 A     26.240486 A
  |    Ba     4     7.181119 A     26.889973 A
  |    Ba     5     4.193585 A      4.193585 A
  |    Ba     5     6.201278 A      6.201278 A
  |    Ba     5     6.512057 A      6.512057 A
  |    Ba     5     6.592155 A      6.592155 A
  |    Ba     5     6.838410 A      8.114926 A
  |    Ba     5     7.007670 A     16.898149 A
  |    Ba     5     7.093864 A     22.660055 A
  |    Ba     5     7.093864 A     24.088357 A
  |    Ba     5     7.093864 A     25.295551 A
  |    Ba     5     7.181119 A     26.240486 A
  |    Ba     6     6.673239 A      6.673239 A
  |    Ba     6     7.007670 A      8.016325 A
  |    Ba     6     7.093864 A     14.066967 A
  |    Ba     6     7.093864 A     21.057436 A
  |    Ba     6     7.181119 A     23.506539 A
  |    Ba     6     7.093864 A     24.384644 A
  |    Ba     6     7.093864 A     25.295551 A
  |    Ba     7     6.592155 A     20.299146 A
  |    Ba     7     6.592155 A     22.938774 A
  |    Ba     7     6.673239 A     24.384644 A
  |    Ba     8     6.354768 A     22.660055 A
  |    S      0     4.651410 A      4.651410 A
  |    S      0     4.944596 A      6.630597 A
  |    S      0     5.066981 A      6.630597 A
  |    S      0     5.192396 A      6.161652 A
  |    S      0     5.320915 A     15.225837 A
  |    S      0     5.320915 A     21.440751 A
  |    S      0     5.386362 A     23.356335 A
  |    S      0     5.386362 A     24.526844 A
  |    S      0     5.452614 A     25.133916 A
  |    S      0     5.452614 A     25.133916 A
  |    S      1     5.005415 A      5.005415 A
  |    S      1     5.005415 A      5.005415 A
  |    S      1     5.129305 A      6.391826 A
  |    S      1     5.256262 A      9.805019 A
  |    S      1     5.386362 A     16.185548 A
  |    S      1     5.452614 A     21.971438 A
  |    S      1     5.386362 A     23.072542 A
  |    S      1     5.452614 A     24.228829 A
  |    S      1     5.452614 A     25.133916 A
  |    S      1     5.452614 A     25.443063 A
  |    S      2     4.708622 A      4.708622 A
  |    S      2     5.066981 A      5.066981 A
  |    S      2     5.192396 A      7.772716 A
  |    S      2     5.256262 A      8.676728 A
  |    S      2     5.320915 A     12.218413 A
  |    S      2     5.386362 A     19.924367 A
  |    S      2     5.452614 A     22.792198 A
  |    S      2     5.452614 A     24.228829 A
  |    S      2     5.452614 A     25.133916 A
  |    S      2     5.452614 A     25.756013 A
  |    S      3     5.005415 A      5.005415 A
  |    S      3     5.192396 A      5.192396 A
  |    S      3     5.320915 A      6.470445 A
  |    S      3     5.320915 A      7.401774 A
  |    S      3     5.386362 A     12.830742 A
  |    S      3     5.386362 A     15.988884 A
  |    S      3     5.320915 A     21.704473 A
  |    S      3     5.452614 A     23.934435 A
  |    S      3     5.452614 A     25.133916 A
  |    S      3     5.452614 A     25.756013 A
  |    S      4     5.066981 A      5.066981 A
  |    S      4     5.192396 A      5.192396 A
  |    S      4     5.320915 A      7.048535 A
  |    S      4     5.386362 A     15.040835 A
  |    S      4     5.452614 A     21.180234 A
  |    S      4     5.452614 A     23.643618 A
  |    S      4     5.452614 A     23.934435 A
  |    S      4     5.452614 A     24.828524 A
  |    S      5     5.129305 A      5.587574 A
  |    S      5     5.192396 A     14.858080 A
  |    S      5     5.192396 A     20.417522 A
  |    S      5     5.256262 A     22.792198 A
  |    S      5     5.256262 A     24.228829 A
  |    S      6     5.129305 A     14.677546 A
  |    S      6     5.192396 A     19.924367 A
  |    S      6     5.129305 A     21.440751 A
  |    S      6     5.129305 A     23.356335 A
  |    S      7     4.884517 A     20.169437 A
  |    S      7     4.944596 A     22.515260 A
  |    S      8     4.708622 A     20.417522 A

  | Shrink_full_auxil_basis : there are      161  radial auxiliary wave functions
                            accepted and     348 rejected.
  | Shrink_full_auxil_basis : there are totally              231267 partial auxiliary wave functions.
  prodbas_tasks_distribution_pbc not up to date - distributing tasks.
 
  | Number of product basis functions per thread : 11564
  Parallel distribution of product basis not up to date - distributing tasks.
 
  | Number of product basis functions per thread :    52
  | Minimal requirement for computer memory :           0.046 Gbs
          Checking for symmetries
  Found symmetry 1.00 0.00 0.00  0.00 1.00 0.00  0.00 0.00 1.00  around 0.00 0.00 0.00
  Found symmetry 1.00 0.00 0.00  0.00 1.00 0.00  0.00 0.00-1.00  around 0.00 0.00 0.00
  Found symmetry 1.00 0.00 0.00  0.00-1.00 0.00  0.00 0.00 1.00  around 0.00 0.00 0.00
  Found symmetry 1.00 0.00 0.00  0.00-1.00 0.00  0.00 0.00-1.00  around 0.00 0.00 0.00
  Found symmetry-1.00 0.00 0.00  0.00 1.00 0.00  0.00 0.00 1.00  around 0.00 0.00 0.00
  Found symmetry-1.00 0.00 0.00  0.00 1.00 0.00  0.00 0.00-1.00  around 0.00 0.00 0.00
  Found symmetry-1.00 0.00 0.00  0.00-1.00 0.00  0.00 0.00 1.00  around 0.00 0.00 0.00
  Found symmetry-1.00 0.00 0.00  0.00-1.00 0.00  0.00 0.00-1.00  around 0.00 0.00 0.00
  Found symmetry 0.00 0.00 1.00  1.00 0.00 0.00  0.00 1.00 0.00  around 0.00 0.00 0.00
  Found symmetry 0.00 0.00-1.00  1.00 0.00 0.00  0.00 1.00 0.00  around 0.00 0.00 0.00
  Found symmetry 0.00 0.00 1.00  1.00 0.00 0.00  0.00-1.00 0.00  around 0.00 0.00 0.00
  Found symmetry 0.00 0.00-1.00  1.00 0.00 0.00  0.00-1.00 0.00  around 0.00 0.00 0.00
  Found symmetry 0.00 0.00 1.00 -1.00 0.00 0.00  0.00 1.00 0.00  around 0.00 0.00 0.00
  Found symmetry 0.00 0.00-1.00 -1.00 0.00 0.00  0.00 1.00 0.00  around 0.00 0.00 0.00
  Found symmetry 0.00 0.00 1.00 -1.00 0.00 0.00  0.00-1.00 0.00  around 0.00 0.00 0.00
  Found symmetry 0.00 0.00-1.00 -1.00 0.00 0.00  0.00-1.00 0.00  around 0.00 0.00 0.00
  Found symmetry 0.00 1.00 0.00  0.00 0.00 1.00  1.00 0.00 0.00  around 0.00 0.00 0.00
  Found symmetry 0.00 1.00 0.00  0.00 0.00-1.00  1.00 0.00 0.00  around 0.00 0.00 0.00
  Found symmetry 0.00-1.00 0.00  0.00 0.00 1.00  1.00 0.00 0.00  around 0.00 0.00 0.00
  Found symmetry 0.00-1.00 0.00  0.00 0.00-1.00  1.00 0.00 0.00  around 0.00 0.00 0.00
  Found symmetry 0.00 1.00 0.00  0.00 0.00 1.00 -1.00 0.00 0.00  around 0.00 0.00 0.00
  Found symmetry 0.00 1.00 0.00  0.00 0.00-1.00 -1.00 0.00 0.00  around 0.00 0.00 0.00
  Found symmetry 0.00-1.00 0.00  0.00 0.00 1.00 -1.00 0.00 0.00  around 0.00 0.00 0.00
  Found symmetry 0.00-1.00 0.00  0.00 0.00-1.00 -1.00 0.00 0.00  around 0.00 0.00 0.00
  Found symmetry 0.00 1.00 0.00  1.00 0.00 0.00  0.00 0.00 1.00  around 0.00 0.00 0.00
  Found symmetry 0.00 1.00 0.00  1.00 0.00 0.00  0.00 0.00-1.00  around 0.00 0.00 0.00
  Found symmetry 0.00-1.00 0.00  1.00 0.00 0.00  0.00 0.00 1.00  around 0.00 0.00 0.00
  Found symmetry 0.00-1.00 0.00  1.00 0.00 0.00  0.00 0.00-1.00  around 0.00 0.00 0.00
  Found symmetry 0.00 1.00 0.00 -1.00 0.00 0.00  0.00 0.00 1.00  around 0.00 0.00 0.00
  Found symmetry 0.00 1.00 0.00 -1.00 0.00 0.00  0.00 0.00-1.00  around 0.00 0.00 0.00
  Found symmetry 0.00-1.00 0.00 -1.00 0.00 0.00  0.00 0.00 1.00  around 0.00 0.00 0.00
  Found symmetry 0.00-1.00 0.00 -1.00 0.00 0.00  0.00 0.00-1.00  around 0.00 0.00 0.00
  Found symmetry 1.00 0.00 0.00  0.00 0.00 1.00  0.00 1.00 0.00  around 0.00 0.00 0.00
  Found symmetry 1.00 0.00 0.00  0.00 0.00-1.00  0.00 1.00 0.00  around 0.00 0.00 0.00
  Found symmetry 1.00 0.00 0.00  0.00 0.00 1.00  0.00-1.00 0.00  around 0.00 0.00 0.00
  Found symmetry 1.00 0.00 0.00  0.00 0.00-1.00  0.00-1.00 0.00  around 0.00 0.00 0.00
  Found symmetry-1.00 0.00 0.00  0.00 0.00 1.00  0.00 1.00 0.00  around 0.00 0.00 0.00
  Found symmetry-1.00 0.00 0.00  0.00 0.00-1.00  0.00 1.00 0.00  around 0.00 0.00 0.00
  Found symmetry-1.00 0.00 0.00  0.00 0.00 1.00  0.00-1.00 0.00  around 0.00 0.00 0.00
  Found symmetry-1.00 0.00 0.00  0.00 0.00-1.00  0.00-1.00 0.00  around 0.00 0.00 0.00
  Found symmetry 0.00 0.00 1.00  0.00 1.00 0.00  1.00 0.00 0.00  around 0.00 0.00 0.00
  Found symmetry 0.00 0.00-1.00  0.00 1.00 0.00  1.00 0.00 0.00  around 0.00 0.00 0.00
  Found symmetry 0.00 0.00 1.00  0.00-1.00 0.00  1.00 0.00 0.00  around 0.00 0.00 0.00
  Found symmetry 0.00 0.00-1.00  0.00-1.00 0.00  1.00 0.00 0.00  around 0.00 0.00 0.00
  Found symmetry 0.00 0.00 1.00  0.00 1.00 0.00 -1.00 0.00 0.00  around 0.00 0.00 0.00
  Found symmetry 0.00 0.00-1.00  0.00 1.00 0.00 -1.00 0.00 0.00  around 0.00 0.00 0.00
  Found symmetry 0.00 0.00 1.00  0.00-1.00 0.00 -1.00 0.00 0.00  around 0.00 0.00 0.00
  Found symmetry 0.00 0.00-1.00  0.00-1.00 0.00 -1.00 0.00 0.00  around 0.00 0.00 0.00
  Found 48 symmetry operations for current configuration
  Irreducible k points #          868
  -----------------------------------------
  --- Initializing Fock matrix calculations
  -----------------------------------------
  screening_threshold (crit_val) =  0.000000100000
  coul_mat_threshold =  0.000000000100
  Trying to make the workload more even by internally splitting atoms into fractions
[...]
     73       0.00000                      -4.369610          -4.369610             4.705895
     74       0.00000                      -4.369610          -4.369610             0.000000
     75       0.00000                      -4.147689          -4.170541             0.199069
     76       0.00000                      -4.147689          -4.170541             0.000000
     77       0.00000                      -4.147687          -4.170537             0.000004
     78       0.00000                      -4.147687          -4.170537             0.000000
     79       0.00000                      -4.147687          -4.104688             0.065849
     80       0.00000                      -4.147687          -4.104688             0.000000
     81       0.00000                      -3.132802          -3.128232             0.976455
     82       0.00000                      -3.132802          -3.128232             0.000000
     83       0.00000                      -3.132798          -3.128218             0.000015
     84       0.00000                      -3.132798          -3.128218             0.000000
     85       0.00000                       0.528075           0.527696             3.655913
     86       0.00000                       0.528075           0.527696             0.000000
     87       0.00000                       3.815957           3.804863             3.277168
     88       0.00000                       3.815957           3.804863             0.000000
     89       0.00000                       3.815958           3.827433             0.022569
     90       0.00000                       3.815958           3.827433             0.000000

  What follows are estimated values for band gap, HOMO, LUMO, etc.
  | They are estimated on a discrete k-point grid and not necessarily exact.
  | For converged numbers, create a DOS and/or band structure plot on a denser k-grid.

  Highest occupied state (VBM) at     -9.07550478 eV (relative to internal zero)
  | Occupation number:      1.00000000
  | K-point:       1 at    0.000000    0.000000    0.000000 (in units of recip. lattice)

  Lowest unoccupied state (CBM) at    -6.11997968 eV (relative to internal zero)
  | Occupation number:      0.00000001
  | K-point:     937 at    0.500000    0.500000    0.000000 (in units of recip. lattice)

  ESTIMATED overall HOMO-LUMO gap:      2.95552510 eV between HOMO at k-point 1 and LUMO at k-point 937
  | This appears to be an indirect band gap.
  | Smallest direct gap :      3.00614186 eV for k_point 79 at    0.000000    0.500000    0.500000 (in units of recip. lattice)
  The gap value is above 0.2 eV. Unless you are using a very sparse k-point grid,
  this system is most likely an insulator or a semiconductor.

  Spin-orbit coupling                                     :  max(cpu_time)    wall_clock(cpu1)
  | Computing matrix elements for SOC operator            :          6.139               6.139
  | Constructing second-variational Hamiltonian           :          0.294               0.296
  | Diagonalizing second-variational Hamiltonian          :          0.345               0.344
  | Syncing data and calculating occupations              :          0.062               0.058
  | Writing out data, calculating band gaps, etc.         :          0.001               0.001
  | Total SOC time                                        :          6.842               6.842

  Partial memory accounting:
  | Current value for overall tracked memory usage:
  |   Minimum:      255.066 MB (on task  3)
  |   Maximum:      430.047 MB (on task 14)
  |   Average:      341.679 MB
  | Peak value for overall tracked memory usage:
  |   Minimum:      311.965 MB (on task  3 after allocating dm_x_o3fn_aux)
  |   Maximum:      555.043 MB (on task 19 after allocating tmpx2)
  |   Average:      419.219 MB
  | Largest tracked array allocation so far:
  |   Minimum:      238.933 MB (ovlp3fn for atom on task  3)
  |   Maximum:      413.708 MB (ovlp3fn for atom on task 14)
  |   Average:      325.385 MB
  Note:  These values currently only include a subset of arrays which are explicitly tracked.
  The "true" memory usage will be greater.
 ------------------------------------------------------------

  -------------------------------------------------------------------
  Writing the requested band structure output (LAPACK version):
  -------------------------------------------------------------------

  Integrating Hamiltonian matrix: batch-based integration.
  Time summed over all CPUs for integration: real work       15.586 s, elapsed       16.587 s
  Integrating SOC matrix: batch-based integration p2 version.
  Allocating        0.145 MB for dist_tab
  Allocating        0.145 MB for dist_tab_sq
  Allocating        0.436 MB for dir_tab
  Allocating        0.023 MB for i_basis_fns
  Allocating        0.738 MB for i_basis_fns_inv
  Allocating        0.023 MB for i_atom_fns
  Allocating        4.721 MB for gradient_basis_wave
  Allocating        0.010 MB for ylm_tab
  Allocating        0.003 MB for radial_wave
  Allocating        0.003 MB for radial_wave_deriv
  Allocating        0.018 MB for i_basis
  Allocating       16.802 MB for soc_shell
  Allocating        0.029 MB for cartesians
  Allocating        0.029 MB for sum_gradient
  Allocating        0.058 MB for sum_hessian
  Allocating        0.001 MB for potential_shell

  Treating all   51 k-points in band plot segment #   1:

  Overlap matrix is not singular
  | Lowest and highest eigenvalues :  0.8860E-03,  0.8604E+01
  Finished singularity check of overlap matrix
  | Time :     0.001 s
  Starting LAPACK eigensolver
  Finished Cholesky decomposition
  | Time :     0.000 s
  Finished transformation to standard eigenproblem
  | Time :     0.001 s
  Finished solving standard eigenproblem
  | Time :     0.001 s
  Finished back-transformation of eigenvectors
  | Time :     0.000 s

  Scalar-relativistic "band gap" along reciprocal space direction number:    1
  | Lowest unoccupied state:      -6.12014182 eV
  | Highest occupied state :      -9.13062876 eV
  | Energy difference      :       3.01048694 eV


Spin-orbit-coupled "band gap" along reciprocal space direction number:    1
  | Lowest unoccupied state:      -6.11997909 eV
  | Highest occupied state :      -9.07550478 eV
  | Energy difference      :       2.95552569 eV


  Treating all   51 k-points in band plot segment #   2:


  Scalar-relativistic "band gap" along reciprocal space direction number:    2
  | Lowest unoccupied state:      -6.12014182 eV
  | Highest occupied state :      -9.23578506 eV
  | Energy difference      :       3.11564324 eV


Spin-orbit-coupled "band gap" along reciprocal space direction number:    2
  | Lowest unoccupied state:      -6.11997909 eV
  | Highest occupied state :      -9.12612142 eV
  | Energy difference      :       3.00614233 eV


  Treating all   51 k-points in band plot segment #   3:


  Scalar-relativistic "band gap" along reciprocal space direction number:    3
  | Lowest unoccupied state:      -4.85137932 eV
  | Highest occupied state :      -9.57183836 eV
  | Energy difference      :       4.72045905 eV


Spin-orbit-coupled "band gap" along reciprocal space direction number:    3
  | Lowest unoccupied state:      -4.85006247 eV
  | Highest occupied state :      -9.46609701 eV
  | Energy difference      :       4.61603453 eV


  Treating all   51 k-points in band plot segment #   4:


  Scalar-relativistic "band gap" along reciprocal space direction number:    4
  | Lowest unoccupied state:      -4.85137932 eV
  | Highest occupied state :      -9.13062876 eV
  | Energy difference      :       4.27924945 eV


Spin-orbit-coupled "band gap" along reciprocal space direction number:    4
  | Lowest unoccupied state:      -4.85006247 eV
  | Highest occupied state :      -9.07550478 eV
  | Energy difference      :       4.22544230 eV


  Treating all   51 k-points in band plot segment #   5:


  Scalar-relativistic "band gap" along reciprocal space direction number:    5
  | Lowest unoccupied state:      -4.36960973 eV
  | Highest occupied state :      -9.13062876 eV
  | Energy difference      :       4.76101904 eV


Spin-orbit-coupled "band gap" along reciprocal space direction number:    5
  | Lowest unoccupied state:      -4.36960973 eV
  | Highest occupied state :      -9.07550478 eV
  | Energy difference      :       4.70589505 eV


  Treating all   51 k-points in band plot segment #   6:


  Scalar-relativistic "band gap" along reciprocal space direction number:    6
  | Lowest unoccupied state:      -4.24600030 eV
  | Highest occupied state :      -9.83039375 eV
  | Energy difference      :       5.58439345 eV


Spin-orbit-coupled "band gap" along reciprocal space direction number:    6
  | Lowest unoccupied state:      -4.24358167 eV
  | Highest occupied state :      -9.81805522 eV
  | Energy difference      :       5.57447355 eV


  Treating all   51 k-points in band plot segment #   7:


  Scalar-relativistic "band gap" along reciprocal space direction number:    7
  | Lowest unoccupied state:      -4.24600030 eV
  | Highest occupied state :      -9.57680041 eV
  | Energy difference      :       5.33080011 eV


Spin-orbit-coupled "band gap" along reciprocal space direction number:    7
  | Lowest unoccupied state:      -4.24358167 eV
  | Highest occupied state :      -9.46609701 eV
  | Energy difference      :       5.22251534 eV


  Treating all   51 k-points in band plot segment #   8:


  Scalar-relativistic "band gap" along reciprocal space direction number:    8
  | Lowest unoccupied state:      -3.77025909 eV
  | Highest occupied state :      -9.57805145 eV
  | Energy difference      :       5.80779235 eV


Spin-orbit-coupled "band gap" along reciprocal space direction number:    8
  | Lowest unoccupied state:      -3.78378871 eV
  | Highest occupied state :      -9.46609701 eV
  | Energy difference      :       5.68230830 eV


  Treating all   51 k-points in band plot segment #   9:


  Scalar-relativistic "band gap" along reciprocal space direction number:    9
  | Lowest unoccupied state:      -4.85137932 eV
  | Highest occupied state :      -9.62720057 eV
  | Energy difference      :       4.77582125 eV


Spin-orbit-coupled "band gap" along reciprocal space direction number:    9
  | Lowest unoccupied state:      -4.85006247 eV
  | Highest occupied state :      -9.57788632 eV
  | Energy difference      :       4.72782384 eV


  Treating all   51 k-points in band plot segment #  10:


  Scalar-relativistic "band gap" along reciprocal space direction number:   10
  | Lowest unoccupied state:      -6.12014182 eV
  | Highest occupied state :      -9.23578506 eV
  | Energy difference      :       3.11564324 eV


Spin-orbit-coupled "band gap" along reciprocal space direction number:   10
  | Lowest unoccupied state:      -6.11997909 eV
  | Highest occupied state :      -9.12612142 eV
  | Energy difference      :       3.00614233 eV

  Scalar-relativistic "band gap" of total set of bands:
  | Lowest unoccupied state:      -6.12014182 eV
  | Highest occupied state :      -9.13062876 eV
  | Energy difference      :       3.01048694 eV

  Spin-orbit-coupled "band gap" of total set of bands:
  | Lowest unoccupied state:      -6.11997909 eV
  | Highest occupied state :      -9.07550478 eV
  | Energy difference      :       2.95552569 eV


  Band Structure                                          :  max(cpu_time) wall_clock(cpu1)
  | Total Time                                            :        471.937          472.129
------------------------------------------------------------

------------------------------------------------------------------------------
  Final output of selected total energy values:

  The following output summarizes some interesting total energy values
  at the end of a run (AFTER all relaxation, molecular dynamics, etc.).

  | Total energy of the DFT / Hartree-Fock s.c.f. calculation      :        -236035.102423373 eV
  | Final zero-broadening corrected energy (caution - metals only) :        -236035.102423373 eV
  | Total energy after non-SC SOC correction (DO NOT USE)          :        -236035.211416376 eV
  | For reference only, the value of 1 Hartree used in FHI-aims is :             27.211384500 eV
  | For reference only, the overall average (free atom contribution
  | + realspace contribution) of the electrostatic potential after
  | s.c.f. convergence is                                          :            -16.090050573 eV

  Before relying on these values, please be sure to understand exactly which
  total energy value is referred to by a given number. Different objects may
  all carry the same name 'total energy'. Definitions:

  Total energy of the DFT / Hartree-Fock s.c.f. calculation:
  | Note that this energy does not include ANY quantities calculated after the
  | s.c.f. cycle, in particular not ANY RPA, MP2, etc. many-body perturbation terms.

  Final zero-broadening corrected energy:
  | For metallic systems only, a broadening of the occupation numbers at the Fermi
  | level can be extrapolated back to zero broadening by an electron-gas inspired
  | formula. For all systems that are not real metals, this value can be
  | meaningless and should be avoided.

------------------------------------------------------------------------------
  Methods described in the following list of references were used in this FHI-aims run.
  If you publish the results, please make sure to cite these reference if they apply.
  FHI-aims is an academic code, and for our developers (often, Ph.D. students
  and postdocs), scientific credit in the community is essential.
  Thank you for helping us!

  For any use of FHI-aims, please cite:

    Volker Blum, Ralf Gehrke, Felix Hanke, Paula Havu, Ville Havu,
    Xinguo Ren, Karsten Reuter, and Matthias Scheffler
    'Ab initio molecular simulations with numeric atom-centered orbitals'
    Computer Physics Communications 180, 2175-2196 (2009)
    http://dx.doi.org/10.1016/j.cpc.2009.06.022


  For Hartree-Fock, hybrid functionals, or many-body perturbation theory used in your run, please cite:

    Xinguo Ren, Patrick Rinke, Volker Blum, Juergen Wieferink, Alex Tkatchenko,
    Andrea Sanfilippo, Karsten Reuter, and Matthias Scheffler,
    'Resolution-of-identity approach to Hartree-Fock, hybrid density functionals,
    RPA, MP2, and GW with numeric atom-centered orbital basis functions'
    New Journal of Physics 14, 053020 (2012).
    http://dx.doi.org/10.1088/1367-2630/14/5/053020


  The provided symmetry information was generated with SPGlib:

    Atsushi Togo, Yusuke Seto, Dimitar Pashov
    SPGlib 1.7.3 obtained from http://spglib.sourceforge.net
    Copyright (C) 2008 Atsushi Togo


  For second-variational spin-orbit coupling used in your run, please cite:

    William P. Huhn and Volker Blum,
    'One-hundred-three compound band-structure benchmark of post-self-consistent'
    'spin-orbit coupling treatments in density functional theory'
    Phys. Rev. Materials 1, 033803 (2017).


  The ELSI infrastructure was used in your run to solve the Kohn-Sham electronic structure.
  Please check out http://elsi-interchange.org to learn more.
  If scalability is important for your project, please acknowledge ELSI by citing:

    V. W-z. Yu, F. Corsetti, A. Garcia, W. P. Huhn, M. Jacquelin, W. Jia,
    B. Lange, L. Lin, J. Lu, W. Mi, A. Seifitokaldani, A. Vazquez-Mayagoitia,
    C. Yang, H. Yang, and V. Blum
    'ELSI: A unified software interface for Kohn-Sham electronic structure solvers'
    Computer Physics Communications 222, 267-285 (2018).
    http://dx.doi.org/10.1016/j.cpc.2017.09.007


  For the real-space grid partitioning and parallelization used in this calculation, please cite:

    Ville Havu, Volker Blum, Paula Havu, and Matthias Scheffler,
    'Efficient O(N) integration for all-electron electronic structure calculation'
    'using numerically tabulated basis functions'
    Journal of Computational Physics 228, 8367-8379 (2009).
    http://dx.doi.org/10.1016/j.jcp.2009.08.008


  The high-level electronic structure method used in your calculation
  employed our efficient localized resolution of identity for the Coulomb operator.
  Some calculations, especially large-scale hybrid density functional theory,
  are only possible thanks to this development. For this feature, please cite:

    Arvid Ihrig, Juergen Wieferink, Igor Ying Zhang, Matti Ropo, Xinguo Ren,
    Patrick Rinke, Matthias Scheffler, and Volker Blum,
    'Accurate localized resolution of identity approach for linear-scaling
    hybrid density functionals and for many-body perturbation theory'
    New Journal of Physics 117, 093020 (2015).
    http://dx.doi.org/10.1088/1367-2630/17/9/093020

  Of course, there are many other important community references, e.g., those cited in the
  above references. Our list is limited to references that describe implementations in the
  FHI-aims code. The reason is purely practical (length of this list) - please credit others as well.

------------------------------------------------------------
          Leaving FHI-aims.
          Date     :  20220509, Time     :  192909.878

          Computational steps:
          | Number of self-consistency cycles          :           14
          | Number of SCF (re)initializations          :            1

          Detailed time accounting                     :  max(cpu_time)    wall_clock(cpu1)
          | Total time                                  :     2543.754 s        2544.333 s
          | Preparation time                            :        0.573 s           0.573 s
          | Boundary condition initalization            :        0.233 s           0.233 s
          | Grid partitioning                           :        0.062 s           0.062 s
          | Preloading free-atom quantities on grid     :        0.169 s           0.170 s
          | Free-atom superposition energy              :        0.018 s           0.018 s
          | Total time for integrations                 :       13.231 s          13.232 s
          | Product basis setup: Total time             :      718.926 s         718.990 s
          | Total time evaluating exchange matrix       :     1300.668 s        1300.845 s
          | Total time for solution of K.-S. equations  :        6.340 s           6.338 s
          | Total time for density update               :       20.658 s          20.657 s
          | Total time for mixing                       :        0.011 s           0.009 s
          | Total time for Hartree multipole update     :        0.020 s           0.022 s
          | Total time for Hartree multipole sum        :        3.803 s           3.798 s
          | Total time for total energy evaluation      :        0.029 s           0.026 s
          | Total time for scaled ZORA corrections      :        0.000 s           0.000 s
          | Total time for perturbative SOC             :        6.842 s           6.842 s
          | Total time for band structures, DOS         :      472.111 s         472.129 s

          Partial memory accounting:
          | Residual value for overall tracked memory usage across tasks:     0.000000 MB (should be 0.000000 MB)
          | Peak values for overall tracked memory usage:
          |   Minimum:      311.965 MB (on task  3 after allocating dm_x_o3fn_aux)
          |   Maximum:      555.043 MB (on task 19 after allocating tmpx2)
          |   Average:      419.219 MB
          | Largest tracked array allocation:
          |   Minimum:      238.933 MB (ovlp3fn for atom on task  3)
          |   Maximum:      413.708 MB (ovlp3fn for atom on task 14)
          |   Average:      325.385 MB
          Note:  These values currently only include a subset of arrays which are explicitly tracked.
          The "true" memory usage will be greater.

          Have a nice day.
------------------------------------------------------------
