------------------------------------------------------------
          Invoking FHI-aims ...

          When using FHI-aims, please cite the following reference:

            Volker Blum, Ralf Gehrke, Felix Hanke, Paula Havu,
            Ville Havu, Xinguo Ren, Karsten Reuter, and Matthias Scheffler,
            'Ab Initio Molecular Simulations with Numeric Atom-Centered Orbitals',
            Computer Physics Communications 180, 2175-2196 (2009)

          In addition, many other developments in FHI-aims are likely important for
          your particular application. A partial list of references is given at the end of
          this file. Thank you for giving credit to the authors of these developments.

          For any questions about FHI-aims, please visit our slack channel at

            https://fhi-aims.slack.com

          and our main development and support site at

            https://aims-git.rz-berlin.mpg.de .

          The latter site, in particular, has a wiki to collect information, as well
          as an issue tracker to log discussions, suggest improvements, and report issues
          or bugs. https://aims-git.rz-berlin.mpg.de is also the main development site
          of the project and all new and updated code versions can be obtained there.
          Please send an email to aims-coordinators@fhi-berlin.mpg.de and we will add
          you to these sites. They are for you and everyone is welcome there.

------------------------------------------------------------



  Date     :  20220721, Time     :  105151.172
  Time zero on CPU 1             :   0.104099600000000E+01  s.
  Internal wall clock time zero  :           427632711.172  s.

  FHI-aims created a unique identifier for this run for later identification
  aims_uuid : EDA37AE4-3C9A-4140-A6D8-AE9510C523A0

  Build configuration of the current instance of FHI-aims
  -------------------------------------------------------
  FHI-aims version      : 220619
  Commit number         : 375d76c9a
  CMake host system     : Linux-4.12.14-197.78_9.1.64-cray_shasta_c
  CMake version         : 3.22.1
  Fortran compiler      : /opt/cray/pe/craype/2.7.6/bin/ftn (GNU) version 10.2.0
  Fortran compiler flags: -O2 -fallow-argument-mismatch -ffree-line-length-none
  C compiler            : /opt/cray/pe/craype/2.7.6/bin/cc (GNU) version 10.2.0
  C compiler flags      : -O2
  Using MPI
  Using ScaLAPACK
  Using LibXC
  Using i-PI
  Using RLSY
  Linking against:

  Using      128 parallel tasks.
  Task        0 on host nid002733 reporting.
  Task        1 on host nid002733 reporting.
  Task        2 on host nid002733 reporting.
  Task        3 on host nid002733 reporting.
  Task        4 on host nid002733 reporting.
  Task        5 on host nid002733 reporting.
  Task        6 on host nid002733 reporting.
  Task        7 on host nid002733 reporting.
  Task        8 on host nid002733 reporting.
  Task        9 on host nid002733 reporting.
  Task       10 on host nid002733 reporting.
  Task       11 on host nid002733 reporting.
  Task       12 on host nid002733 reporting.
  Task       13 on host nid002733 reporting.
  Task       14 on host nid002733 reporting.
  Task       15 on host nid002733 reporting.
  Task       16 on host nid002734 reporting.
  Task       17 on host nid002734 reporting.
  Task       18 on host nid002734 reporting.
  Task       19 on host nid002734 reporting.
  Task       20 on host nid002734 reporting.
  Task       21 on host nid002734 reporting.
  Task       22 on host nid002734 reporting.
  Task       23 on host nid002734 reporting.
  Task       24 on host nid002734 reporting.
  Task       25 on host nid002734 reporting.
  Task       26 on host nid002734 reporting.
  Task       27 on host nid002734 reporting.
  Task       28 on host nid002734 reporting.
  Task       29 on host nid002734 reporting.
  Task       30 on host nid002734 reporting.
  Task       31 on host nid002734 reporting.
  Task       32 on host nid002735 reporting.
  Task       33 on host nid002735 reporting.
  Task       34 on host nid002735 reporting.
  Task       35 on host nid002735 reporting.
  Task       36 on host nid002735 reporting.
  Task       37 on host nid002735 reporting.
  Task       38 on host nid002735 reporting.
  Task       39 on host nid002735 reporting.
  Task       40 on host nid002735 reporting.
  Task       41 on host nid002735 reporting.
  Task       42 on host nid002735 reporting.
  Task       43 on host nid002735 reporting.
  Task       44 on host nid002735 reporting.
  Task       45 on host nid002735 reporting.
  Task       46 on host nid002735 reporting.
  Task       47 on host nid002735 reporting.
  Task       48 on host nid002736 reporting.
  Task       49 on host nid002736 reporting.
  Task       50 on host nid002736 reporting.
  Task       51 on host nid002736 reporting.
  Task       52 on host nid002736 reporting.
  Task       53 on host nid002736 reporting.
  Task       54 on host nid002736 reporting.
  Task       55 on host nid002736 reporting.
  Task       56 on host nid002736 reporting.
  Task       57 on host nid002736 reporting.
  Task       58 on host nid002736 reporting.
  Task       59 on host nid002736 reporting.
  Task       60 on host nid002736 reporting.
  Task       61 on host nid002736 reporting.
  Task       62 on host nid002736 reporting.
  Task       63 on host nid002736 reporting.
  Task       64 on host nid002737 reporting.
  Task       65 on host nid002737 reporting.
  Task       66 on host nid002737 reporting.
  Task       67 on host nid002737 reporting.
  Task       68 on host nid002737 reporting.
  Task       69 on host nid002737 reporting.
  Task       70 on host nid002737 reporting.
  Task       71 on host nid002737 reporting.
  Task       72 on host nid002737 reporting.
  Task       73 on host nid002737 reporting.
  Task       74 on host nid002737 reporting.
  Task       75 on host nid002737 reporting.
  Task       76 on host nid002737 reporting.
  Task       77 on host nid002737 reporting.
  Task       78 on host nid002737 reporting.
  Task       79 on host nid002737 reporting.
  Task       80 on host nid002740 reporting.
  Task       81 on host nid002740 reporting.
  Task       82 on host nid002740 reporting.
  Task       83 on host nid002740 reporting.
  Task       84 on host nid002740 reporting.
  Task       85 on host nid002740 reporting.
  Task       86 on host nid002740 reporting.
  Task       87 on host nid002740 reporting.
  Task       88 on host nid002740 reporting.
  Task       89 on host nid002740 reporting.
  Task       90 on host nid002740 reporting.
  Task       91 on host nid002740 reporting.
  Task       92 on host nid002740 reporting.
  Task       93 on host nid002740 reporting.
  Task       94 on host nid002740 reporting.
  Task       95 on host nid002740 reporting.
  Task       96 on host nid002744 reporting.
  Task       97 on host nid002744 reporting.
  Task       98 on host nid002744 reporting.
  Task       99 on host nid002744 reporting.
  Task      100 on host nid002744 reporting.
  Task      101 on host nid002744 reporting.
  Task      102 on host nid002744 reporting.
  Task      103 on host nid002744 reporting.
  Task      104 on host nid002744 reporting.
  Task      105 on host nid002744 reporting.
  Task      106 on host nid002744 reporting.
  Task      107 on host nid002744 reporting.
  Task      108 on host nid002744 reporting.
  Task      109 on host nid002744 reporting.
  Task      110 on host nid002744 reporting.
  Task      111 on host nid002744 reporting.
  Task      112 on host nid002745 reporting.
  Task      113 on host nid002745 reporting.
  Task      114 on host nid002745 reporting.
  Task      115 on host nid002745 reporting.
  Task      116 on host nid002745 reporting.
  Task      117 on host nid002745 reporting.
  Task      118 on host nid002745 reporting.
  Task      119 on host nid002745 reporting.
  Task      120 on host nid002745 reporting.
  Task      121 on host nid002745 reporting.
  Task      122 on host nid002745 reporting.
  Task      123 on host nid002745 reporting.
  Task      124 on host nid002745 reporting.
  Task      125 on host nid002745 reporting.
  Task      126 on host nid002745 reporting.
  Task      127 on host nid002745 reporting.

  Performing system and environment tests:
  | Environment variable OMP_NUM_THREADS correctly set to 1.
  | Checking for ScaLAPACK...
  | Testing pdtran()...
  | All pdtran() tests passed.

  Obtaining array dimensions for all initial allocations:
  
  -----------------------------------------------------------------------
  Parsing control.in (first pass over file, find array dimensions only).
  The contents of control.in will be repeated verbatim below
  unless switched off by setting 'verbatim_writeout .false.' .
  in the first line of control.in .
  -----------------------------------------------------------------------
  
  xc               scan
  charge           0.
  spin             none
  relativistic atomic_zora scalar
  k_grid                8 16 12
  sc_accuracy_rho       1E-7
  include_spin_orbit
  output band   0.00000  0.00000  0.00000   0.50000  0.00000  0.00000   18 G  Y
   output band   0.50000  0.00000  0.00000   0.60110  0.00000  0.47324   30 Y  H
   output band   0.60110  0.00000  0.47324   0.50000  0.00000  0.50000    4 H  C
   output band   0.50000  0.00000  0.50000   0.50000  0.50000  0.50000   45 C  E
   output band   0.50000  0.50000  0.50000   0.39890  0.50000  0.52676    4 E  M1
   output band   0.39890  0.50000  0.52676   0.00000  0.50000  0.50000   14 M1 A
   output band   0.00000  0.50000  0.50000   0.00000  0.00000  0.50000   45 A  X
   output band   0.00000  0.00000  0.50000   0.39890  0.00000  0.52676   14 X  H1
   output band   0.60110  0.50000  0.47324   0.50000  0.50000  0.00000   30 M  D
   output band   0.50000  0.50000  0.00000   0.00000  0.50000  0.00000   18 D  Z
   output band   0.50000  0.00000  0.00000   0.50000  0.50000  0.00000   45 Y  D
  output dos -10 10 51 0.1
  
  
  ################################################################################
  #
  #  FHI-aims code project
  #  Volker Blum, Fritz Haber Institute Berlin, 2009
  #
  #  Suggested "tight" defaults for Ba atom (to be pasted into control.in file)
  #
  #  The onset of the cutoff pot'l WAS set to 8 A by default, because the neutral
  #  Ba atom is a large atom. However, this is very expensive. The radius should be
  #  much smaller in real-world situations, where Ba will be ionic. Please check
  #  and reduce the cutoff radius explicitly.
  #
  #  2015/11/12 : f and g functions from tier2 added to default basis set choice.
  #               These functions make a difference in the "delta test".
  #               Reduced the default cutoff radius to 6AA. The free-atom 6s function
  #               requires more. However, 6AA is already VERY expensive for
  #               any production calculations. In fact, revisit this choice for
  #               ionic systems to see if a smaller cutoff radius will do.
  #
  ################################################################################
    species          Ba
  #     global species definitions
      nucleus        56
      mass           137.327
  #
      l_hartree      6
  #
      cut_pot        6.0  2.0  1.0
      basis_dep_cutoff    1e-4
  #
      radial_base    65  7.0
      radial_multiplier  2
      angular_grids specified
        division   0.6752  110
        division   0.9746  194
        division   1.2241  302
        division   1.3850  434
  #      division   1.4734  590
  #      division   1.6010  770
  #      division   4.8366  974
  #      outer_grid  974
        outer_grid  434
  ################################################################################
  #
  #  Definition of "minimal" basis
  #
  ################################################################################
  #     valence basis states
      valence      6  s   2.
      valence      5  p   6.
      valence      4  d  10.
  #     ion occupancy
      ion_occ      6  s   1.
      ion_occ      5  p   6.
      ion_occ      4  d  10.
  ################################################################################
  #
  #  Suggested additional basis functions. For production calculations,
  #  uncomment them one after another (the most important basis functions are
  #  listed first).
  #
  #  Constructed for dimers: 2.65, 3.00, 3.50, 4.40, 5.50 Ang
  #
  ################################################################################
  #  "First tier" - improvements: -1277.43 meV to -9.16 meV
       ionic 5 d auto
       ionic 4 f auto
       hydro 3 p 2.7
       hydro 4 s 3.3
  #  "Second tier" - improvements: -64.04 (!) meV to -0.25 meV
       hydro 4 f 5.8
       hydro 5 g 7.4
  #     hydro 4 d 4.5
  #     hydro 6 h 11.2
  #     hydro 5 p 6.6
  #     hydro 2 s 3.2
  #  "Third tier" - max. impr. -1.16 meV, min. impr. -0.08 meV
  #     hydro 5 f 7.4
  #     hydro 5 g 10.8
  #     hydro 4 d 2.3
  #     hydro 4 p 3.7
  #     hydro 5 s 4.0
  #  Further functions - impr. -0.35 meV and below
  #     hydro 5 d 3.5
  #     hydro 6 d 0.4
  #     hydro 2 p 2.5
  #     hydro 5 f 12
  #     hydro 6 d 8.8
  ################################################################################
  #
  #  FHI-aims code project
  #  Volker Blum, Fritz Haber Institute Berlin, 2009
  #
  #  Suggested "tight" defaults for Zr atom (to be pasted into control.in file)
  #
  ################################################################################
    species          Zr
  #     global species definitions
      nucleus        40
      mass           91.224
  #
      l_hartree      6
  #
      cut_pot        4.0  2.0  1.0
      basis_dep_cutoff    1e-4
  #
      radial_base    58  7.0
      radial_multiplier  2
      angular_grids specified
        division   0.3653   50
        division   0.8035  110
        division   1.2273  194
        division   1.4586  302
        division   1.6764  434
  #      division   1.9671  590
  #      division   2.1961  770
  #      division   2.3240  974
  #      division   3.4772 1202
  #      outer_grid  974
        outer_grid  434
  ################################################################################
  #
  #  Definition of "minimal" basis
  #
  ################################################################################
  #     valence basis states
      valence      5  s   2.
      valence      4  p   6.
      valence      4  d   2.
  #     ion occupancy
      ion_occ      5  s   1.
      ion_occ      4  p   6.
      ion_occ      4  d   1.
  ################################################################################
  #
  #  Suggested additional basis functions. For production calculations,
  #  uncomment them one after another (the most important basis functions are
  #  listed first).
  #
  #  Constructed for dimers: 1.9, 2.25, 3.00, 4.00 Ang
  #
  ################################################################################
  #  "First tier" - improvements: -605.96 meV to -18.06 meV
       hydro 4 f 7.2
       ionic 4 d auto
       ionic 5 p auto
       hydro 5 g 10.4
       ionic 5 s auto
  #  "Second tier" - improvements: -32.47 meV to -1.41 meV
  #     hydro 4 f 10.4
  #     hydro 6 h 14.8
  #     hydro 4 d 6.2
  #     hydro 4 p 4.4
  #     hydro 4 f 20
  #     hydro 5 s 6
  #  "Third tier" - improvements: -1.99 meV and lower.
  #     hydro 4 f 5.8
  #     hydro 5 g 10.8
  #     hydro 2 p 1
  #     hydro 3 d 8
  #     hydro 6 h 14.4
  #     hydro 1 s 0.9
  #  Further functions (approx -0.40 meV and below possible)
  ################################################################################
  #
  #  FHI-aims code project
  #  Volker Blum, Fritz Haber Institute Berlin, 2009
  #
  #  Suggested "tight" defaults for S atom (to be pasted into control.in file)
  #
  #  Revised Jan 04, 2011, following tests (SiC) done by Lydia Nemec:
  #     d and g functions of tier 2 now enabled by default.
  #
  ################################################################################
    species        S
  #     global species definitions
      nucleus             16
      mass                32.065
  #
      l_hartree           6
  #
      cut_pot             4.0          2.0  1.0
      basis_dep_cutoff    1e-4
  #
      radial_base         44 7.0
      radial_multiplier   2
      angular_grids       specified
        division   0.4665  110
        division   0.5810  194
        division   0.7139  302
        division   0.8274  434
  #      division   0.9105  590
  #      division   1.0975  770
  #      division   1.2028  974
  #      outer_grid  974
        outer_grid  434
  ################################################################################
  #
  #  Definition of "minimal" basis
  #
  ################################################################################
  #     valence basis states
      valence      3  s   2.
      valence      3  p   4.
  #     ion occupancy
      ion_occ      3  s   1.
      ion_occ      3  p   3.
  ################################################################################
  #
  #  Suggested additional basis functions. For production calculations,
  #  uncomment them one after another (the most important basis functions are
  #  listed first).
  #
  #  Constructed for dimers: 1.6 A, 1.9 A, 2.5 A, 3.25 A, 4.0 A
  #
  ################################################################################
  #  "First tier" - improvements: -652.81 meV to -45.53 meV
       ionic 3 d auto
       hydro 2 p 1.8
       hydro 4 f 7
       ionic 3 s auto
  #  "Second tier" - improvements: -30.20 meV to -1.74 meV
       hydro 4 d 6.2
       hydro 5 g 10.8
  #     hydro 4 p 4.9
  #     hydro 5 f 10
  #     hydro 1 s 0.8
  #  "Third tier" - improvements: -1.04 meV to -0.20 meV
  #     hydro 3 d 3.9
  #     hydro 3 d 2.7
  #     hydro 5 g 12
  #     hydro 4 p 10.4
  #     hydro 5 f 12.4
  #     hydro 2 s 1.9
  #  "Fourth tier" - improvements: -0.35 meV to -0.06 meV
  #     hydro 4 d 10.4
  #     hydro 4 p 7.2
  #     hydro 4 d 10
  #     hydro 5 g 19.2
  #     hydro 4 s 12
  
  ################################################################################
  #
  # For methods that use the localized form of the "resolution of identity" for
  # the two-electron Coulomb operator (RI_method LVL), particularly Hartree-Fock and
  # hybrid density functional calculations, the highest accuracy can be obtained by
  # uncommenting the line beginning with "for_aux"  below, thus adding an extra g radial
  # function to the construction of the product basis set for the expansion.
  # See Ref. New J. Phys. 17, 093020 (2015) for more information, particularly Figs. 1 and 6.
  #
  ################################################################################
  #
  # for_aux hydro 5 g 6.0
  
  -----------------------------------------------------------------------
  Completed first pass over input file control.in .
  -----------------------------------------------------------------------
  
  
  -----------------------------------------------------------------------
  Parsing geometry.in (first pass over file, find array dimensions only).
  The contents of geometry.in will be repeated verbatim below
  unless switched off by setting 'verbatim_writeout .false.' .
  in the first line of geometry.in .
  -----------------------------------------------------------------------
  
  #
  # This is the geometry file that corresponds to the current relaxation step.
  # If you do not want this file to be written, set the "write_restart_geometry" flag to .false.
  #  aims_uuid : FDD830CE-B0C9-4B10-ADA9-397C5124D3D7
  #
  lattice_vector      9.06573949      0.00000000      0.00000000
  lattice_vector      0.00000000      3.59938361      0.00000000
  lattice_vector      0.60814164      0.00000000      5.04345011
  atom_frac      -0.44524431      0.25000000      0.23817334 S
  atom_frac       0.44524431      0.75000000     -0.23817334 S
  atom_frac       0.17489683      0.25000000     -0.47475506 S
  atom_frac      -0.17489683      0.75000000      0.47475506 S
  atom_frac       0.17395300      0.25000000      0.11591820 S
  atom_frac      -0.17395300      0.75000000     -0.11591820 S
  atom_frac      -0.34720328      0.25000000     -0.28272094 Zr
  atom_frac       0.34720328      0.75000000      0.28272094 Zr
  #
  # What follows is the current estimated Hessian matrix constructed by the BFGS algorithm.
  # This is NOT the true Hessian matrix of the system.
  # If you do not want this information here, switch it off using the "hessian_to_restart_geometry" keyword.
  #
  trust_radius             0.1218153456
  hessian_block                1       1          59.477055           4.479712          -1.777443           4.479712          20.51026
  hessian_block                1       2           1.483495           0.500755          -3.583553          -1.286074           0.81888
  hessian_block                1       3          20.344858          -1.077559          19.830438          -0.862191          -6.93431
  hessian_block                2       2          27.334549          -4.029017         -19.156328          -4.029017          33.23270
  hessian_block                2       3          -7.598544          26.621780           9.906658           4.864131          10.02096
  hessian_block                3       3          98.753410           3.574303           0.000000           3.574303          20.35212
  hessian_block_lv             1       1           2.455208           2.787616           1.255397           2.787616          16.40620
  hessian_block_lv             1       2           0.234791           2.296520          -1.395683           0.000000           0.00000
  hessian_block_lv             2       2          11.008995           0.000000           0.000000           0.000000           0.00000
  hessian_block_lv_atom        1       1           4.341390           9.059593          -1.109522           0.125373          -0.71322
  hessian_block_lv_atom        1       2           1.698537           3.039262           0.365026          -4.040829          -7.92152
  hessian_block_lv_atom        1       3           0.685949          -3.533664          -0.234451          -0.134032           0.06237
  hessian_block_lv_atom        2       1          -1.035307           0.000000           0.000000          -0.104798           0.00000
  hessian_block_lv_atom        2       2           9.557301           0.000000           0.000000          -4.139416           0.00000
  hessian_block_lv_atom        2       3           1.036612           0.000000           0.000000           0.654673           0.00000
  
  -----------------------------------------------------------------------
  Completed first pass over input file geometry.in .
  -----------------------------------------------------------------------
  

  Basic array size parameters:
  | Number of species                 :        3
  | Number of atoms                   :        8
  | Number of lattice vectors         :        3
  | Max. basis fn. angular momentum   :        4
  | Max. atomic/ionic basis occupied n:        6
  | Max. number of basis fn. types    :        3
  | Max. radial fns per species/type  :       12
  | Max. logarithmic grid size        :     1460
  | Max. radial integration grid size :      131
  | Max. angular integration grid size:      434
  | Max. angular grid division number :        8
  | Radial grid for Hartree potential :     1460
  | Number of spin channels           :        1

------------------------------------------------------------
          Reading file control.in.
------------------------------------------------------------
  XC: Using the parameter-free meta-GGA functional SCAN.
  Charge =   0.000000E+00: Neutral system requested explicitly.
  Spin treatment: No spin polarisation.
  Scalar relativistic treatment of kinetic energy: on-site free-atom approximation to ZORA.
  Found k-point grid:         8        16        12
  Convergence accuracy of self-consistent charge density:  0.1000E-06
  Calculating non-self-consistent second-variational spin-orbit coupling after scf-cycle

  Plot band    1
  | begin  0.000000  0.000000  0.000000
  | end    0.500000  0.000000  0.000000
  | number of points:   18

  Plot band    2
  | begin  0.500000  0.000000  0.000000
  | end    0.601100  0.000000  0.473240
  | number of points:   30

  Plot band    3
  | begin  0.601100  0.000000  0.473240
  | end    0.500000  0.000000  0.500000
  | number of points:    4

  Plot band    4
  | begin  0.500000  0.000000  0.500000
  | end    0.500000  0.500000  0.500000
  | number of points:   45

  Plot band    5
  | begin  0.500000  0.500000  0.500000
  | end    0.398900  0.500000  0.526760
  | number of points:    4

  Plot band    6
  | begin  0.398900  0.500000  0.526760
  | end    0.000000  0.500000  0.500000
  | number of points:   14

  Plot band    7
  | begin  0.000000  0.500000  0.500000
  | end    0.000000  0.000000  0.500000
  | number of points:   45

  Plot band    8
  | begin  0.000000  0.000000  0.500000
  | end    0.398900  0.000000  0.526760
  | number of points:   14

  Plot band    9
  | begin  0.601100  0.500000  0.473240
  | end    0.500000  0.500000  0.000000
  | number of points:   30

  Plot band   10
  | begin  0.500000  0.500000  0.000000
  | end    0.000000  0.500000  0.000000
  | number of points:   18

  Plot band   11
  | begin  0.500000  0.000000  0.000000
  | end    0.500000  0.500000  0.000000
  | number of points:   45
  Calculating density of states with
  | energy interval :-10.000000 10.000000
  | points & broadening :    51  0.100000

  Reading configuration options for species Ba                  .
  | Found nuclear charge :  56.0000
  | Found atomic mass :    137.32700000000000      amu
  | Found l_max for Hartree potential  :   6
  | Found cutoff potl. onset [A], width [A], scale factor :    6.00000    2.00000    1.00000
  | Threshold for basis-dependent cutoff potential is   0.100000E-03
  | Found data for basic radial integration grid :    65 points, outermost radius =    7.000 A
  | Found multiplier for basic radial grid :   2
  | Found angular grid specification: user-specified.
  | Specified grid contains     5 separate shells.
  | Check grid settings after all constraints further below.
  | Found free-atom valence shell :  6 s   2.000
  | Found free-atom valence shell :  5 p   6.000
  | Found free-atom valence shell :  4 d  10.000
  | Found free-ion valence shell :  6 s   1.000
  | Found free-ion valence shell :  5 p   6.000
  | Found free-ion valence shell :  4 d  10.000
  | Found ionic basis function :  5 d , default cutoff radius.
  | Found ionic basis function :  4 f , default cutoff radius.
  | Found hydrogenic basis function :  3 p   2.700
  | Found hydrogenic basis function :  4 s   3.300
  | Found hydrogenic basis function :  4 f   5.800
  | Found hydrogenic basis function :  5 g   7.400
  Species Ba                  : Missing cutoff potential type.
  Defaulting to exp(1/x)/(1-x)^2 type cutoff potential.
  Species Ba: No 'logarithmic' tag. Using default grid for free atom:
  | Default logarithmic grid data [bohr] : 0.1000E-03 0.1000E+03 0.1012E+01
  | Will include ionic basis functions of  1.0-fold positive Ba                   ion.
  Species Ba: On-site basis accuracy parameter (for Gram-Schmidt orthonormalisation) not specified.
  Using default value basis_acc =  0.1000000E-03.
  Species Ba                  : Using default innermost maximum threshold i_radial=  2 for radial functions.
  Species Ba                  : Default cutoff onset for free atom density etc. : 0.60000000E+01 AA.
  Species Ba                  : Basic radial grid will be enhanced according to radial_multiplier =   2, to contain   131 grid points.

  Reading configuration options for species Zr                  .
  | Found nuclear charge :  40.0000
  | Found atomic mass :    91.224000000000004      amu
  | Found l_max for Hartree potential  :   6
  | Found cutoff potl. onset [A], width [A], scale factor :    4.00000    2.00000    1.00000
  | Threshold for basis-dependent cutoff potential is   0.100000E-03
  | Found data for basic radial integration grid :    58 points, outermost radius =    7.000 A
  | Found multiplier for basic radial grid :   2
  | Found angular grid specification: user-specified.
  | Specified grid contains     6 separate shells.
  | Check grid settings after all constraints further below.
  | Found free-atom valence shell :  5 s   2.000
  | Found free-atom valence shell :  4 p   6.000
  | Found free-atom valence shell :  4 d   2.000
  | Found free-ion valence shell :  5 s   1.000
  | Found free-ion valence shell :  4 p   6.000
  | Found free-ion valence shell :  4 d   1.000
  | Found hydrogenic basis function :  4 f   7.200
  | Found ionic basis function :  4 d , default cutoff radius.
  | Found ionic basis function :  5 p , default cutoff radius.
  | Found hydrogenic basis function :  5 g  10.400
  | Found ionic basis function :  5 s , default cutoff radius.
  Species Zr                  : Missing cutoff potential type.
  Defaulting to exp(1/x)/(1-x)^2 type cutoff potential.
  Species Zr: No 'logarithmic' tag. Using default grid for free atom:
  | Default logarithmic grid data [bohr] : 0.1000E-03 0.1000E+03 0.1012E+01
  | Will include ionic basis functions of  2.0-fold positive Zr                   ion.
  Species Zr: On-site basis accuracy parameter (for Gram-Schmidt orthonormalisation) not specified.
  Using default value basis_acc =  0.1000000E-03.
  Species Zr                  : Using default innermost maximum threshold i_radial=  2 for radial functions.
  Species Zr                  : Default cutoff onset for free atom density etc. : 0.40000000E+01 AA.
  Species Zr                  : Basic radial grid will be enhanced according to radial_multiplier =   2, to contain   117 grid points.

  Reading configuration options for species S                   .
  | Found nuclear charge :  16.0000
  | Found atomic mass :    32.064999999999998      amu
  | Found l_max for Hartree potential  :   6
  | Found cutoff potl. onset [A], width [A], scale factor :    4.00000    2.00000    1.00000
  | Threshold for basis-dependent cutoff potential is   0.100000E-03
  | Found data for basic radial integration grid :    44 points, outermost radius =    7.000 A
  | Found multiplier for basic radial grid :   2
  | Found angular grid specification: user-specified.
  | Specified grid contains     5 separate shells.
  | Check grid settings after all constraints further below.
  | Found free-atom valence shell :  3 s   2.000
  | Found free-atom valence shell :  3 p   4.000
  | Found free-ion valence shell :  3 s   1.000
  | Found free-ion valence shell :  3 p   3.000
  | Found ionic basis function :  3 d , default cutoff radius.
  | Found hydrogenic basis function :  2 p   1.800
  | Found hydrogenic basis function :  4 f   7.000
  | Found ionic basis function :  3 s , default cutoff radius.
  | Found hydrogenic basis function :  4 d   6.200
  | Found hydrogenic basis function :  5 g  10.800
  Species S                   : Missing cutoff potential type.
  Defaulting to exp(1/x)/(1-x)^2 type cutoff potential.
  Species S : No 'logarithmic' tag. Using default grid for free atom:
  | Default logarithmic grid data [bohr] : 0.1000E-03 0.1000E+03 0.1012E+01
  | Will include ionic basis functions of  2.0-fold positive S                    ion.
  Species S : On-site basis accuracy parameter (for Gram-Schmidt orthonormalisation) not specified.
  Using default value basis_acc =  0.1000000E-03.
  Species S                   : Using default innermost maximum threshold i_radial=  2 for radial functions.
  Species S                   : Default cutoff onset for free atom density etc. : 0.40000000E+01 AA.
  Species S                   : Basic radial grid will be enhanced according to radial_multiplier =   2, to contain    89 grid points.

  Finished reading input file 'control.in'.

------------------------------------------------------------


------------------------------------------------------------
          Reading geometry description geometry.in.
------------------------------------------------------------
  | The smallest distance between any two atoms is         2.08041447 AA.
  | The first atom of this pair is atom number                      3 .
  | The second atom of this pair is atom number                     5 .
  | Wigner-Seitz cell of the first atom image           0     0     1 .
  | (The Wigner-Seitz cell of the second atom is 0 0 0  by definition.)

  Symmetry information by spglib:
  | Precision set to  0.1E-04
  | Number of Operations  : 4
  | Space group           : 11
  | International         : P2_1/m
  | Schoenflies           : C2h^2
  Input structure read successfully.
  The structure contains        8 atoms,  and a total of        176.000 electrons.

  Input geometry:
  | Unit cell:
  |        9.06573949        0.00000000        0.00000000
  |        0.00000000        3.59938361        0.00000000
  |        0.60814164        0.00000000        5.04345011
  | Atomic structure:
  |       Atom                x [A]            y [A]            z [A]
  |    1: Species S            -3.89162580        0.89984590        1.20121536
  |    2: Species S             3.89162580        2.69953771       -1.20121536
  |    3: Species S             1.29685078        0.89984590       -2.39440346
  |    4: Species S            -1.29685078        2.69953771        2.39440346
  |    5: Species S             1.64750727        0.89984590        0.58462766
  |    6: Species S            -1.64750727        2.69953771       -0.58462766
  |    7: Species Zr           -3.31958886        0.89984590       -1.42588896
  |    8: Species Zr            3.31958886        2.69953771        1.42588896

  Lattice parameters for 3D lattice (in Angstroms) :     9.065739    3.599384    5.079983
  Angle(s) between unit vectors (in degrees)       :    90.000000   83.124442   90.000000


  Quantities derived from the lattice vectors (in Angstrom^-1):
  | Reciprocal lattice vector 1:  0.693069  0.000000 -0.083571
  | Reciprocal lattice vector 2:  0.000000  1.745628  0.000000
  | Reciprocal lattice vector 3: -0.000000  0.000000  1.245811
  | Unit cell volume                               :   0.164573E+03  Angstrom^3

  Fractional coordinates:
                         L1                L2                L3
       atom_frac        -0.44524431        0.25000000        0.23817334  S
       atom_frac         0.44524431        0.75000000       -0.23817334  S
       atom_frac         0.17489683        0.25000000       -0.47475506  S
       atom_frac        -0.17489683        0.75000000        0.47475506  S
       atom_frac         0.17395300        0.25000000        0.11591820  S
       atom_frac        -0.17395300        0.75000000       -0.11591820  S
       atom_frac        -0.34720328        0.25000000       -0.28272094  Zr
       atom_frac         0.34720328        0.75000000        0.28272094  Zr


  Finished reading input file 'control.in'.


------------------------------------------------------------
          Reading geometry description geometry.in.
------------------------------------------------------------

  Consistency checks for stacksize environment parameter are next.

  | Maximum stacksize for task 0: unlimited
  | Maximum stacksize for task 1: unlimited
  | Maximum stacksize for task 2: unlimited
  | Maximum stacksize for task 3: unlimited
  | Maximum stacksize for task 4: unlimited
  | Maximum stacksize for task 5: unlimited
  | Maximum stacksize for task 6: unlimited
  | Maximum stacksize for task 7: unlimited
  | Maximum stacksize for task 8: unlimited
  | Maximum stacksize for task 9: unlimited
  | Maximum stacksize for task 10: unlimited
  | Maximum stacksize for task 11: unlimited
  | Maximum stacksize for task 12: unlimited
  | Maximum stacksize for task 13: unlimited
  | Maximum stacksize for task 14: unlimited
  | Maximum stacksize for task 15: unlimited
  | Maximum stacksize for task 16: unlimited
  | Maximum stacksize for task 17: unlimited
  | Maximum stacksize for task 18: unlimited
  | Maximum stacksize for task 19: unlimited
  | Maximum stacksize for task 20: unlimited
  | Maximum stacksize for task 21: unlimited
  | Maximum stacksize for task 22: unlimited
  | Maximum stacksize for task 23: unlimited
  | Maximum stacksize for task 24: unlimited
  | Maximum stacksize for task 25: unlimited
  | Maximum stacksize for task 26: unlimited
  | Maximum stacksize for task 27: unlimited
  | Maximum stacksize for task 28: unlimited
  | Maximum stacksize for task 29: unlimited
  | Maximum stacksize for task 30: unlimited
  | Maximum stacksize for task 31: unlimited
  | Maximum stacksize for task 32: unlimited
  | Maximum stacksize for task 33: unlimited
  | Maximum stacksize for task 34: unlimited
  | Maximum stacksize for task 35: unlimited
  | Maximum stacksize for task 36: unlimited
  | Maximum stacksize for task 37: unlimited
  | Maximum stacksize for task 38: unlimited
  | Maximum stacksize for task 39: unlimited
  | Maximum stacksize for task 40: unlimited
  | Maximum stacksize for task 41: unlimited
  | Maximum stacksize for task 42: unlimited
  | Maximum stacksize for task 43: unlimited
  | Maximum stacksize for task 44: unlimited
  | Maximum stacksize for task 45: unlimited
  | Maximum stacksize for task 46: unlimited
  | Maximum stacksize for task 47: unlimited
  | Maximum stacksize for task 48: unlimited
  | Maximum stacksize for task 49: unlimited
  | Maximum stacksize for task 50: unlimited
  | Maximum stacksize for task 51: unlimited
  | Maximum stacksize for task 52: unlimited
  | Maximum stacksize for task 53: unlimited
  | Maximum stacksize for task 54: unlimited
  | Maximum stacksize for task 55: unlimited
  | Maximum stacksize for task 56: unlimited
  | Maximum stacksize for task 57: unlimited
  | Maximum stacksize for task 58: unlimited
  | Maximum stacksize for task 59: unlimited
  | Maximum stacksize for task 60: unlimited
  | Maximum stacksize for task 61: unlimited
  | Maximum stacksize for task 62: unlimited
  | Maximum stacksize for task 63: unlimited
  | Maximum stacksize for task 64: unlimited
  | Maximum stacksize for task 65: unlimited
  | Maximum stacksize for task 66: unlimited
  | Maximum stacksize for task 67: unlimited
  | Maximum stacksize for task 68: unlimited
  | Maximum stacksize for task 69: unlimited
  | Maximum stacksize for task 70: unlimited
  | Maximum stacksize for task 71: unlimited
  | Maximum stacksize for task 72: unlimited
  | Maximum stacksize for task 73: unlimited
  | Maximum stacksize for task 74: unlimited
  | Maximum stacksize for task 75: unlimited
  | Maximum stacksize for task 76: unlimited
  | Maximum stacksize for task 77: unlimited
  | Maximum stacksize for task 78: unlimited
  | Maximum stacksize for task 79: unlimited
  | Maximum stacksize for task 80: unlimited
  | Maximum stacksize for task 81: unlimited
  | Maximum stacksize for task 82: unlimited
  | Maximum stacksize for task 83: unlimited
  | Maximum stacksize for task 84: unlimited
  | Maximum stacksize for task 85: unlimited
  | Maximum stacksize for task 86: unlimited
  | Maximum stacksize for task 87: unlimited
  | Maximum stacksize for task 88: unlimited
  | Maximum stacksize for task 89: unlimited
  | Maximum stacksize for task 90: unlimited
  | Maximum stacksize for task 91: unlimited
  | Maximum stacksize for task 92: unlimited
  | Maximum stacksize for task 93: unlimited
  | Maximum stacksize for task 94: unlimited
  | Maximum stacksize for task 95: unlimited
  | Maximum stacksize for task 96: unlimited
  | Maximum stacksize for task 97: unlimited
  | Maximum stacksize for task 98: unlimited
  | Maximum stacksize for task 99: unlimited
  | Maximum stacksize for task 100: unlimited
  | Maximum stacksize for task 101: unlimited
  | Maximum stacksize for task 102: unlimited
  | Maximum stacksize for task 103: unlimited
  | Maximum stacksize for task 104: unlimited
  | Maximum stacksize for task 105: unlimited
  | Maximum stacksize for task 106: unlimited
  | Maximum stacksize for task 107: unlimited
  | Maximum stacksize for task 108: unlimited
  | Maximum stacksize for task 109: unlimited
  | Maximum stacksize for task 110: unlimited
  | Maximum stacksize for task 111: unlimited
  | Maximum stacksize for task 112: unlimited
  | Maximum stacksize for task 113: unlimited
  | Maximum stacksize for task 114: unlimited
  | Maximum stacksize for task 115: unlimited
  | Maximum stacksize for task 116: unlimited
  | Maximum stacksize for task 117: unlimited
  | Maximum stacksize for task 118: unlimited
  | Maximum stacksize for task 119: unlimited
  | Maximum stacksize for task 120: unlimited
  | Maximum stacksize for task 121: unlimited
  | Maximum stacksize for task 122: unlimited
  | Maximum stacksize for task 123: unlimited
  | Maximum stacksize for task 124: unlimited
  | Maximum stacksize for task 125: unlimited
  | Maximum stacksize for task 126: unlimited
  | Maximum stacksize for task 127: unlimited
  | Current stacksize for task 0: unlimited
  | Current stacksize for task 1: unlimited
  | Current stacksize for task 2: unlimited
  | Current stacksize for task 3: unlimited
  | Current stacksize for task 4: unlimited
  | Current stacksize for task 5: unlimited
  | Current stacksize for task 6: unlimited
  | Current stacksize for task 7: unlimited
  | Current stacksize for task 8: unlimited
  | Current stacksize for task 9: unlimited
  | Current stacksize for task 10: unlimited
  | Current stacksize for task 11: unlimited
  | Current stacksize for task 12: unlimited
  | Current stacksize for task 13: unlimited
  | Current stacksize for task 14: unlimited
  | Current stacksize for task 15: unlimited
  | Current stacksize for task 16: unlimited
  | Current stacksize for task 17: unlimited
  | Current stacksize for task 18: unlimited
  | Current stacksize for task 19: unlimited
  | Current stacksize for task 20: unlimited
  | Current stacksize for task 21: unlimited
  | Current stacksize for task 22: unlimited
  | Current stacksize for task 23: unlimited
  | Current stacksize for task 24: unlimited
  | Current stacksize for task 25: unlimited
  | Current stacksize for task 26: unlimited
  | Current stacksize for task 27: unlimited
  | Current stacksize for task 28: unlimited
  | Current stacksize for task 29: unlimited
  | Current stacksize for task 30: unlimited
  | Current stacksize for task 31: unlimited
  | Current stacksize for task 32: unlimited
  | Current stacksize for task 33: unlimited
  | Current stacksize for task 34: unlimited
  | Current stacksize for task 35: unlimited
  | Current stacksize for task 36: unlimited
  | Current stacksize for task 37: unlimited
  | Current stacksize for task 38: unlimited
  | Current stacksize for task 39: unlimited
  | Current stacksize for task 40: unlimited
  | Current stacksize for task 41: unlimited
  | Current stacksize for task 42: unlimited
  | Current stacksize for task 43: unlimited
  | Current stacksize for task 44: unlimited
  | Current stacksize for task 45: unlimited
  | Current stacksize for task 46: unlimited
  | Current stacksize for task 47: unlimited
  | Current stacksize for task 48: unlimited
  | Current stacksize for task 49: unlimited
  | Current stacksize for task 50: unlimited
  | Current stacksize for task 51: unlimited
  | Current stacksize for task 52: unlimited
  | Current stacksize for task 53: unlimited
  | Current stacksize for task 54: unlimited
  | Current stacksize for task 55: unlimited
  | Current stacksize for task 56: unlimited
  | Current stacksize for task 57: unlimited
  | Current stacksize for task 58: unlimited
  | Current stacksize for task 59: unlimited
  | Current stacksize for task 60: unlimited
  | Current stacksize for task 61: unlimited
  | Current stacksize for task 62: unlimited
  | Current stacksize for task 63: unlimited
  | Current stacksize for task 64: unlimited
  | Current stacksize for task 65: unlimited
  | Current stacksize for task 66: unlimited
  | Current stacksize for task 67: unlimited
  | Current stacksize for task 68: unlimited
  | Current stacksize for task 69: unlimited
  | Current stacksize for task 70: unlimited
  | Current stacksize for task 71: unlimited
  | Current stacksize for task 72: unlimited
  | Current stacksize for task 73: unlimited
  | Current stacksize for task 74: unlimited
  | Current stacksize for task 75: unlimited
  | Current stacksize for task 76: unlimited
  | Current stacksize for task 77: unlimited
  | Current stacksize for task 78: unlimited
  | Current stacksize for task 79: unlimited
  | Current stacksize for task 80: unlimited
  | Current stacksize for task 81: unlimited
  | Current stacksize for task 82: unlimited
  | Current stacksize for task 83: unlimited
  | Current stacksize for task 84: unlimited
  | Current stacksize for task 85: unlimited
  | Current stacksize for task 86: unlimited
  | Current stacksize for task 87: unlimited
  | Current stacksize for task 88: unlimited
  | Current stacksize for task 89: unlimited
  | Current stacksize for task 90: unlimited
  | Current stacksize for task 91: unlimited
  | Current stacksize for task 92: unlimited
  | Current stacksize for task 93: unlimited
  | Current stacksize for task 94: unlimited
  | Current stacksize for task 95: unlimited
  | Current stacksize for task 96: unlimited
  | Current stacksize for task 97: unlimited
  | Current stacksize for task 98: unlimited
  | Current stacksize for task 99: unlimited
  | Current stacksize for task 100: unlimited
  | Current stacksize for task 101: unlimited
  | Current stacksize for task 102: unlimited
  | Current stacksize for task 103: unlimited
  | Current stacksize for task 104: unlimited
  | Current stacksize for task 105: unlimited
  | Current stacksize for task 106: unlimited
  | Current stacksize for task 107: unlimited
  | Current stacksize for task 108: unlimited
  | Current stacksize for task 109: unlimited
  | Current stacksize for task 110: unlimited
  | Current stacksize for task 111: unlimited
  | Current stacksize for task 112: unlimited
  | Current stacksize for task 113: unlimited
  | Current stacksize for task 114: unlimited
  | Current stacksize for task 115: unlimited
  | Current stacksize for task 116: unlimited
  | Current stacksize for task 117: unlimited
  | Current stacksize for task 118: unlimited
  | Current stacksize for task 119: unlimited
  | Current stacksize for task 120: unlimited
  | Current stacksize for task 121: unlimited
  | Current stacksize for task 122: unlimited
  | Current stacksize for task 123: unlimited
  | Current stacksize for task 124: unlimited
  | Current stacksize for task 125: unlimited
  | Current stacksize for task 126: unlimited
  | Current stacksize for task 127: unlimited

  Consistency checks for the contents of control.in are next.

  MPI_IN_PLACE appears to work with this MPI implementation.
  | Keeping use_mpi_in_place .true. (see manual).
  Target number of points in a grid batch is not set. Defaulting to  100
  Method for grid partitioning is not set. Defaulting to parallel hash+maxmin partitioning.
  Batch size limit is not set. Defaulting to    200
  By default, will store active basis functions for each batch.
  If in need of memory, prune_basis_once .false. can be used to disable this option.
  communication_type for Hartree potential was not specified.
  Defaulting to calc_hartree .
  Defaulting to Pulay charge density mixer.
  Pulay mixer: Number of relevant iterations not set.
  Defaulting to    8 iterations.
  Pulay mixer: Number of initial linear mixing iterations not set.
  Defaulting to    0 iterations.
  Work space size for distributed Hartree potential not set.
  Defaulting to   0.200000E+03 MB.
  Mixing parameter for charge density mixing has not been set.
  Using default: charge_mix_param =     0.0500.
  The mixing parameter will be adjusted in iteration number     2 of the first full s.c.f. cycle only.
  Algorithm-dependent basis array size parameters:
  | n_max_pulay                         :        8
  Maximum number of self-consistency iterations not provided.
  Presetting  1000 iterations.
  Presetting      1001 iterations before the initial mixing cycle
  is restarted anyway using the sc_init_iter criterion / keyword.
  Presetting a factor      1.000 between actual scf density residual
  and density convergence criterion sc_accuracy_rho below which sc_init_iter
  takes no effect.
  Calculation of forces was not defined in control.in. No forces will be calculated.
  Geometry relaxation not requested: no relaxation will be performed.
  No accuracy limit for integral partition fn. given. Defaulting to  0.1000E-14.
  No threshold value for u(r) in integrations given. Defaulting to  0.1000E-05.
  No occupation type (smearing scheme) given. Defaulting to Gaussian broadening, width =  0.1000E-01 eV.
  The width will be adjusted in iteration number     2 of the first full s.c.f. cycle only.
  S.C.F. convergence parameters will be adjusted in iteration number     2 of the first full s.c.f. cycle only.
  No accuracy for occupation numbers given. Defaulting to  0.1000E-12.
  No threshold value for occupation numbers given. Defaulting to  0.0000E+00.
  No accuracy for fermi level given. Defaulting to  0.1000E-19.
  Maximum # of iterations to find E_F not set. Defaulting to  200.
  Preferred method for the eigenvalue solver ('KS_method') not specified in 'control.in'.
  Defaulting to serial version, LAPACK (via ELSI), since more k-points than CPUs available.
  Will not use alltoall communication since running on < 1024 CPUs.
  Threshold for basis singularities not set.
  Default threshold for basis singularities:  0.1000E-04
  partition_type (choice of integration weights) for integrals was not specified.
  | Using a version of the partition function of Stratmann and coworkers ('stratmann_sparse').
  | At each grid point, the set of atoms used to build the partition table is smoothly restricted to
  | only those atoms whose free-atom density would be non-zero at that grid point.
  Partitioning for Hartree potential was not defined. Using partition_type for integrals.
  | Adjusted default value of keyword multip_moments_threshold to:       0.10000000E-11
  | This value may affect high angular momentum components of the Hartree potential in periodic systems.
  Angular momentum expansion for Kerker preconditioner not set explicitly.
  | Using default value of   0
  No explicit requirement for turning off preconditioner.
  | By default, it will be turned off when the charge convergence reaches
  | sc_accuracy_rho  =   0.100000E-06
  No special mixing parameter while Kerker preconditioner is on.
  Using default: charge_mix_param =     0.0500.
  No q(lm)/r^(l+1) cutoff set for long-range Hartree potential.
  | Using default value of  0.100000E-09 .
  | Verify using the multipole_threshold keyword.
  Defaulting to new monopole extrapolation.
  Density update method: automatic selection selected.
  Using density matrix based charge density update.
  Using density matrix based charge density update.
  Using packed matrix style: index .
  Defaulting to use time-reversal symmetry for k-point grid.
  Charge integration errors on the 3D integration grid will be compensated
  by explicit normalization and distribution of residual charges.
  Use the "compensate_multipole_errors" flag to change this behaviour.
  Set 'collect_eigenvectors' to be '.true.' for all serial calculations. This is mandatory.
  Set 'collect_eigenvectors' to be '.true.' for KS_method lapack_fast and serial.

  Consistency checks for the contents of geometry.in are next.


  Range separation radius for Ewald summation (hartree_convergence_parameter):      3.92767683 bohr.
  Number of empty states per atom not set in control.in - providing a guess from actual geometry.
  | Total number of empty states used during s.c.f. cycle:       29
  If you use a very high smearing, use empty_states (per atom!) in control.in to increase this value.

  Structure-dependent array size parameters: 
  | Maximum number of distinct radial functions  :       44
  | Maximum number of basis functions            :      332
  | Number of Kohn-Sham states (occupied + empty):      117
------------------------------------------------------------

------------------------------------------------------------
          Preparing all fixed parts of the calculation.
------------------------------------------------------------
  Determining machine precision:
     2.2250738585072014E-308
  Setting up grids for atomic and cluster calculations.

  Creating wave function, potential, and density for free atoms.
  Runtime choices for atomic solver:
  | atomic solver xc        : PW-LDA
  | compute density gradient: 1
  | compute kinetic density : T

  Species: Ba

  List of occupied orbitals and eigenvalues:
    n    l              occ      energy [Ha]    energy [eV]
    1    0           2.0000     -1427.162554    -38835.0690
    2    0           2.0000      -217.960478     -5931.0064
    3    0           2.0000       -45.700559     -1243.5755
    4    0           2.0000        -8.937735      -243.2081
    5    0           2.0000        -1.240339       -33.7513
    6    0           2.0000        -0.121843        -3.3155
    2    1           6.0000      -195.440294     -5318.2010
    3    1           6.0000       -38.547652     -1048.9350
    4    1           6.0000        -6.634332      -180.5294
    5    1           6.0000        -0.689279       -18.7562
    3    2          10.0000       -28.153245      -766.0888
    4    2          10.0000        -3.293650       -89.6248


  Species: Zr

  List of occupied orbitals and eigenvalues:
    n    l              occ      energy [Ha]    energy [eV]
    1    0           2.0000      -667.721322    -18169.6216
    2    0           2.0000       -90.963381     -2475.2395
    3    0           2.0000       -14.831793      -403.5936
    4    0           2.0000        -1.995278       -54.2943
    5    0           2.0000        -0.162338        -4.4174
    2    1           6.0000       -81.161403     -2208.5141
    3    1           6.0000       -11.652900      -317.0915
    4    1           6.0000        -1.186444       -32.2848
    3    2          10.0000        -6.423483      -174.7919
    4    2           2.0000        -0.130568        -3.5529


  Species: S

  List of occupied orbitals and eigenvalues:
    n    l              occ      energy [Ha]    energy [eV]
    1    0           2.0000       -88.357216     -2404.3222
    2    0           2.0000        -7.747963      -210.8328
    3    0           2.0000        -0.634591       -17.2681
    2    1           6.0000        -5.752228      -156.5261
    3    1           4.0000        -0.260726        -7.0947


  Adding cutoff potential to free-atom effective potential.
  Creating fixed part of basis set: Ionic, confined, hydrogenic.

  Ba                   ion:

  List of free ionic orbitals and eigenvalues:
    n    l      energy [Ha]    energy [eV]
    1    0     -1427.386486    -38841.1625
    2    0      -218.177246     -5936.9049
    3    0       -45.916216     -1249.4438
    4    0        -9.152701      -249.0577
    5    0        -1.452758       -39.5315
    6    0        -0.287342        -7.8190
    2    1      -195.656927     -5324.0959
    3    1       -38.763265     -1054.8021
    4    1        -6.849212      -186.3765
    5    1        -0.899782       -24.4843
    3    2       -28.368814      -771.9547
    4    2        -3.508339       -95.4668


  List of ionic basis orbitals and eigenvalues:
    n    l      energy [Ha]    energy [eV]    outer radius [A]
    5    2        -0.266775        -7.2593       6.922523
    4    3        -0.152438        -4.1480       6.922523


  Ba                   hydrogenic:

  List of hydrogenic basis orbitals: 
    n    l      effective z      eigenvalue [eV]  inner max. [A]     outer max. [A]     outer radius [A]   
    3    1         2.700000       -11.0183           0.585865           2.360755           7.358861
    4    0         3.300000        -9.1387           0.118110           3.896996           7.449375
    4    3         5.800000       -28.6057           1.465516           1.465516           5.905331
    5    4         7.400000       -29.8017           1.782126           1.782126           6.354768


  Zr                   ion:

  List of free ionic orbitals and eigenvalues:
    n    l      energy [Ha]    energy [eV]
    1    0      -668.422481    -18188.7011
    2    0       -91.659116     -2494.1714
    3    0       -15.521812      -422.3700
    4    0        -2.666442       -72.5576
    5    0        -0.652717       -17.7613
    2    1       -81.856520     -2227.4293
    3    1       -12.342798      -335.8646
    4    1        -1.848413       -50.2979
    3    2        -7.113819      -193.5769
    4    2        -0.734961       -19.9993


  List of ionic basis orbitals and eigenvalues:
    n    l      energy [Ha]    energy [eV]    outer radius [A]
    4    2        -0.734949       -19.9990       4.947480
    5    1        -0.477833       -13.0025       5.455794
    5    0        -0.652644       -17.7593       5.389503


  Zr                   hydrogenic:

  List of hydrogenic basis orbitals: 
    n    l      effective z      eigenvalue [eV]  inner max. [A]     outer max. [A]     outer radius [A]   
    4    3         7.200000       -44.0822           1.169212           1.169212           5.008334
    5    4        10.400000       -58.8635           1.273673           1.273673           4.887365


  S                    ion:

  List of free ionic orbitals and eigenvalues:
    n    l      energy [Ha]    energy [eV]
    1    0       -89.377212     -2432.0777
    2    0        -8.738531      -237.7875
    3    0        -1.470337       -40.0099
    2    1        -6.744772      -183.5346
    3    1        -1.051741       -28.6193


  List of ionic basis orbitals and eigenvalues:
    n    l      energy [Ha]    energy [eV]    outer radius [A]
    3    2        -0.499358       -13.5882       5.386362
    3    0        -1.470331       -40.0097       3.967934


  S                    hydrogenic:

  List of hydrogenic basis orbitals: 
    n    l      effective z      eigenvalue [eV]  inner max. [A]     outer max. [A]     outer radius [A]   
    2    1         1.800000       -11.0118           1.168531           1.168531           5.452614
    4    3         7.000000       -41.6672           1.212182           1.212182           5.066981
    4    2         6.200000       -32.6848           0.582121           1.814567           5.386362
    5    4        10.800000       -63.4785           1.227092           1.227092           4.766538

  Creating atomic-like basis functions for current effective potential.

  Species Ba                  :

  List of atomic basis orbitals and eigenvalues:
    n    l      energy [Ha]    energy [eV]    outer radius [A]
    1    0     -1427.162554    -38835.0690       0.181180
    2    0      -217.960478     -5931.0064       0.481781
    3    0       -45.700559     -1243.5755       1.053516
    4    0        -8.937735      -243.2081       2.303735
    5    0        -1.240339       -33.7513       5.905331
    6    0        -0.121843        -3.3155       7.358861
    2    1      -195.440294     -5318.2010       0.493705
    3    1       -38.547652     -1048.9350       1.119920
    4    1        -6.634332      -180.5294       2.603304
    5    1        -0.689279       -18.7562       6.838410
    3    2       -28.153245      -766.0888       1.250174
    4    2        -3.293650       -89.6248       3.490975


  Species Zr                  :

  List of atomic basis orbitals and eigenvalues:
    n    l      energy [Ha]    energy [eV]    outer radius [A]
    1    0      -667.721322    -18169.6216       0.259930
    2    0       -90.963381     -2475.2395       0.725827
    3    0       -14.831793      -403.5936       1.771771
    4    0        -1.995278       -54.2943       4.541709
    5    0        -0.162338        -4.4174       5.455794
    2    1       -81.161403     -2208.5141       0.743792
    3    1       -11.652900      -317.0915       1.953807
    4    1        -1.186444       -32.2848       5.008334
    3    2        -6.423483      -174.7919       2.434714
    4    2        -0.130568        -3.5529       5.389503


  Species S                   :

  List of atomic basis orbitals and eigenvalues:
    n    l      energy [Ha]    energy [eV]    outer radius [A]
    1    0       -88.357216     -2404.3222       0.682391
    2    0        -7.747963      -210.8328       2.317169
    3    0        -0.634591       -17.2681       5.256262
    2    1        -5.752228      -156.5261       2.586670
    3    1        -0.260726        -7.0947       5.386362

  Assembling full basis from fixed parts.
  | Species Ba :   atomic orbital   1 s accepted.
  | Species Ba :   atomic orbital   2 s accepted.
  | Species Ba :   atomic orbital   3 s accepted.
  | Species Ba :   atomic orbital   4 s accepted.
  | Species Ba :   atomic orbital   5 s accepted.
  | Species Ba :   atomic orbital   6 s accepted.
  | Species Ba :    hydro orbital   4 s accepted.
  | Species Ba :   atomic orbital   2 p accepted.
  | Species Ba :   atomic orbital   3 p accepted.
  | Species Ba :   atomic orbital   4 p accepted.
  | Species Ba :   atomic orbital   5 p accepted.
  | Species Ba :    hydro orbital   3 p accepted.
  | Species Ba :   atomic orbital   3 d accepted.
  | Species Ba :   atomic orbital   4 d accepted.
  | Species Ba :    ionic orbital   5 d accepted.
  | Species Ba :    hydro orbital   4 f accepted.
  | Species Ba :    ionic orbital   4 f accepted.
  | Species Ba :    hydro orbital   5 g accepted.
  | Species Zr :   atomic orbital   1 s accepted.
  | Species Zr :   atomic orbital   2 s accepted.
  | Species Zr :   atomic orbital   3 s accepted.
  | Species Zr :   atomic orbital   4 s accepted.
  | Species Zr :    ionic orbital   5 s accepted.
  | Species Zr :   atomic orbital   5 s accepted.
  | Species Zr :   atomic orbital   2 p accepted.
  | Species Zr :   atomic orbital   3 p accepted.
  | Species Zr :   atomic orbital   4 p accepted.
  | Species Zr :    ionic orbital   5 p accepted.
  | Species Zr :   atomic orbital   3 d accepted.
  | Species Zr :    ionic orbital   4 d accepted.
  | Species Zr :   atomic orbital   4 d accepted.
  | Species Zr :    hydro orbital   4 f accepted.
  | Species Zr :    hydro orbital   5 g accepted.
  | Species S :   atomic orbital   1 s accepted.
  | Species S :   atomic orbital   2 s accepted.
  | Species S :    ionic orbital   3 s accepted.
  | Species S :   atomic orbital   3 s accepted.
  | Species S :   atomic orbital   2 p accepted.
  | Species S :   atomic orbital   3 p accepted.
  | Species S :    hydro orbital   2 p accepted.
  | Species S :    ionic orbital   3 d accepted.
  | Species S :    hydro orbital   4 d accepted.
  | Species S :    hydro orbital   4 f accepted.
  | Species S :    hydro orbital   5 g accepted.

  Basis size parameters after reduction:
  | Total number of radial functions:       44
  | Total number of basis functions :      332

  Per-task memory consumption for arrays in subroutine allocate_ext:
  |          16.456308MB.
  Testing on-site integration grid accuracy.
  |  Species  Function  <phi|h_atom|phi> (log., in eV)  <phi|h_atom|phi> (rad., in eV)
           1        1             -38835.0689992433             -38835.0640166250
           1        2              -5931.0063704563              -5931.0062755902
           1        3              -1243.5754793962              -1243.5754721452
           1        4               -243.2081386653               -243.2081364141
           1        5                -33.7513467914                -33.7513462595
           1        6                 -3.3168055682                 -3.3157305946
           1        7                  1.5834527852                  1.6019597409
           1        8              -5318.2009788064              -5318.2009735469
           1        9              -1048.9349786457              -1048.9349763081
           1       10               -180.5293695420               -180.5293679763
           1       11                -18.7562430974                -18.7562427816
           1       12                 -0.7364960541                 -0.7359567110
           1       13               -766.0887812536               -766.0887805836
           1       14                -89.6247750152                -89.6247741513
           1       15                 -2.0097022490                 -2.0097838905
           1       16                  7.9753282792                  7.9753293008
           1       17                  8.2999572592                  8.2997893784
           1       18                 17.3842349116                 17.3842136311
           2       19             -18169.6216327857             -18169.6203665583
           2       20              -2475.2395491856              -2475.2395264726
           2       21               -403.5936114829               -403.5936092281
           2       22                -54.2942828553                -54.2942823120
           2       23                 -3.8650167240                 -3.8650236559
           2       24                  4.2787825756                  4.2781344354
           2       25              -2208.5141310256              -2208.5141285108
           2       26               -317.0915488438               -317.0915477596
           2       27                -32.2847739591                -32.2847736572
           2       28                 -0.3721618530                 -0.3722056352
           2       29               -174.7918605426               -174.7918602627
           2       30                 -3.2101029221                 -3.2101030361
           2       31                  4.8820653394                  4.8817789321
           2       32                 16.6481255495                 16.6481258941
           2       33                 36.8572155210                 36.8572151754
           3       34              -2404.3221819234              -2404.3221352217
           3       35               -210.8328114131               -210.8328107803
           3       36                -17.0012896299                -17.0012895367
           3       37                  6.9304307370                  6.9304415534
           3       38               -156.5260975773               -156.5260974422
           3       39                 -7.0949934902                 -7.0949953075
           3       40                  6.7845586895                  6.7844657527
           3       41                  5.9580367750                  5.9580341070
           3       42                 19.1237500368                 19.1237524193
           3       43                 24.5944131756                 24.5944131573
           3       44                 47.4299823117                 47.4299831527

  Preparing densities etc. for the partition functions (integrals / Hartree potential).

  Preparations completed.
  max(cpu_time)          :      0.513 s.
  Wall clock time (cpu1) :      0.664 s.
------------------------------------------------------------

  Initializing index lists of integration centers etc. from given atomic structure:
  Mapping all atomic coordinates to central unit cell.

  Initializing the k-points
  Using symmetry for reducing the k-points
  | k-points reduced from:     1536 to      772
  | Number of k-points                             :       772
  The eigenvectors in the calculations are COMPLEX.
  | K-points in task   0:         6
  | K-points in task   1:         7
  | K-points in task   2:         7
  | K-points in task   3:         7
  | K-points in task   4:         7
  | K-points in task   5:         6
  | K-points in task   6:         6
  | K-points in task   7:         6
  | K-points in task   8:         6
  | K-points in task   9:         6
  | K-points in task  10:         6
  | K-points in task  11:         6
  | K-points in task  12:         6
  | K-points in task  13:         6
  | K-points in task  14:         6
  | K-points in task  15:         6
  | K-points in task  16:         6
  | K-points in task  17:         6
  | K-points in task  18:         6
  | K-points in task  19:         6
  | K-points in task  20:         6
  | K-points in task  21:         6
  | K-points in task  22:         6
  | K-points in task  23:         6
  | K-points in task  24:         6
  | K-points in task  25:         6
  | K-points in task  26:         6
  | K-points in task  27:         6
  | K-points in task  28:         6
  | K-points in task  29:         6
  | K-points in task  30:         6
  | K-points in task  31:         6
  | K-points in task  32:         6
  | K-points in task  33:         6
  | K-points in task  34:         6
  | K-points in task  35:         6
  | K-points in task  36:         6
  | K-points in task  37:         6
  | K-points in task  38:         6
  | K-points in task  39:         6
  | K-points in task  40:         6
  | K-points in task  41:         6
  | K-points in task  42:         6
  | K-points in task  43:         6
  | K-points in task  44:         6
  | K-points in task  45:         6
  | K-points in task  46:         6
  | K-points in task  47:         6
  | K-points in task  48:         6
  | K-points in task  49:         6
  | K-points in task  50:         6
  | K-points in task  51:         6
  | K-points in task  52:         6
  | K-points in task  53:         6
  | K-points in task  54:         6
  | K-points in task  55:         6
  | K-points in task  56:         6
  | K-points in task  57:         6
  | K-points in task  58:         6
  | K-points in task  59:         6
  | K-points in task  60:         6
  | K-points in task  61:         6
  | K-points in task  62:         6
  | K-points in task  63:         6
  | K-points in task  64:         6
  | K-points in task  65:         6
  | K-points in task  66:         6
  | K-points in task  67:         6
  | K-points in task  68:         6
  | K-points in task  69:         6
  | K-points in task  70:         6
  | K-points in task  71:         6
  | K-points in task  72:         6
  | K-points in task  73:         6
  | K-points in task  74:         6
  | K-points in task  75:         6
  | K-points in task  76:         6
  | K-points in task  77:         6
  | K-points in task  78:         6
  | K-points in task  79:         6
  | K-points in task  80:         6
  | K-points in task  81:         6
  | K-points in task  82:         6
  | K-points in task  83:         6
  | K-points in task  84:         6
  | K-points in task  85:         6
  | K-points in task  86:         6
  | K-points in task  87:         6
  | K-points in task  88:         6
  | K-points in task  89:         6
  | K-points in task  90:         6
  | K-points in task  91:         6
  | K-points in task  92:         6
  | K-points in task  93:         6
  | K-points in task  94:         6
  | K-points in task  95:         6
  | K-points in task  96:         6
  | K-points in task  97:         6
  | K-points in task  98:         6
  | K-points in task  99:         6
  | K-points in task 100:         6
  | K-points in task 101:         6
  | K-points in task 102:         6
  | K-points in task 103:         6
  | K-points in task 104:         6
  | K-points in task 105:         6
  | K-points in task 106:         6
  | K-points in task 107:         6
  | K-points in task 108:         6
  | K-points in task 109:         6
  | K-points in task 110:         6
  | K-points in task 111:         6
  | K-points in task 112:         6
  | K-points in task 113:         6
  | K-points in task 114:         6
  | K-points in task 115:         6
  | K-points in task 116:         6
  | K-points in task 117:         6
  | K-points in task 118:         6
  | K-points in task 119:         6
  | K-points in task 120:         6
  | K-points in task 121:         6
  | K-points in task 122:         6
  | K-points in task 123:         6
  | K-points in task 124:         6
  | K-points in task 125:         6
  | K-points in task 126:         6
  | K-points in task 127:         6
  | Number of basis functions in the Hamiltonian integrals :      6156
  | Number of basis functions in a single unit cell        :       332
  | Number of centers in hartree potential         :      1242
  | Number of centers in hartree multipole         :       722
  | Number of centers in electron density summation:       536
  | Number of centers in basis integrals           :       592
  | Number of centers in integrals                 :       204
  | Number of centers in hamiltonian               :      1186
  | Consuming       2605 KiB for k_phase.
  | Number of super-cells (origin) [n_cells]                     :         819
  | Number of super-cells (after PM_index) [n_cells]             :         216
  | Number of super-cells in hamiltonian [n_cells_in_hamiltonian]:         216
  | Size of matrix packed + index [n_hamiltonian_matrix_size] :     1338853

------------------------------------------------------------
          Begin self-consistency loop: Initialization.

          Date     :  20220721, Time     :  105152.362
------------------------------------------------------------
  | Estimated reciprocal-space cutoff momentum G_max:         2.47705428 bohr^-1 .
  | Reciprocal lattice points for long-range Hartree potential:     290
  Partitioning the integration grid into batches with parallel hashing+maxmin method.
  | Number of batches:     2320
  | Maximal batch size:     120
  | Minimal batch size:      51
  | Average batch size:      82.945
  | Standard deviation of batch sizes:      15.885

  Integration load balanced across   128 MPI tasks.
  Work distribution over tasks is as follows:
  Task     0 has       1505 integration points.
  Task     1 has       1499 integration points.
  Task     2 has       1481 integration points.
  Task     3 has       1475 integration points.
  Task     4 has       1496 integration points.
  Task     5 has       1477 integration points.
  Task     6 has       1529 integration points.
  Task     7 has       1534 integration points.
  Task     8 has       1476 integration points.
  Task     9 has       1554 integration points.
  Task    10 has       1474 integration points.
  Task    11 has       1544 integration points.
  Task    12 has       1508 integration points.
  Task    13 has       1496 integration points.
  Task    14 has       1493 integration points.
  Task    15 has       1473 integration points.
  Task    16 has       1494 integration points.
  Task    17 has       1500 integration points.
  Task    18 has       1506 integration points.
  Task    19 has       1492 integration points.
  Task    20 has       1507 integration points.
  Task    21 has       1532 integration points.
  Task    22 has       1542 integration points.
  Task    23 has       1516 integration points.
  Task    24 has       1498 integration points.
  Task    25 has       1476 integration points.
  Task    26 has       1496 integration points.
  Task    27 has       1493 integration points.
  Task    28 has       1502 integration points.
  Task    29 has       1548 integration points.
  Task    30 has       1500 integration points.
  Task    31 has       1531 integration points.
  Task    32 has       1518 integration points.
  Task    33 has       1493 integration points.
  Task    34 has       1500 integration points.
  Task    35 has       1476 integration points.
  Task    36 has       1494 integration points.
  Task    37 has       1478 integration points.
  Task    38 has       1503 integration points.
  Task    39 has       1490 integration points.
  Task    40 has       1476 integration points.
  Task    41 has       1533 integration points.
  Task    42 has       1496 integration points.
  Task    43 has       1464 integration points.
  Task    44 has       1533 integration points.
  Task    45 has       1503 integration points.
  Task    46 has       1530 integration points.
  Task    47 has       1475 integration points.
  Task    48 has       1481 integration points.
  Task    49 has       1495 integration points.
  Task    50 has       1473 integration points.
  Task    51 has       1492 integration points.
  Task    52 has       1493 integration points.
  Task    53 has       1494 integration points.
  Task    54 has       1543 integration points.
  Task    55 has       1505 integration points.
  Task    56 has       1475 integration points.
  Task    57 has       1553 integration points.
  Task    58 has       1534 integration points.
  Task    59 has       1472 integration points.
  Task    60 has       1502 integration points.
  Task    61 has       1470 integration points.
  Task    62 has       1494 integration points.
  Task    63 has       1472 integration points.
  Task    64 has       1478 integration points.
  Task    65 has       1514 integration points.
  Task    66 has       1533 integration points.
  Task    67 has       1480 integration points.
  Task    68 has       1505 integration points.
  Task    69 has       1473 integration points.
  Task    70 has       1506 integration points.
  Task    71 has       1499 integration points.
  Task    72 has       1495 integration points.
  Task    73 has       1474 integration points.
  Task    74 has       1505 integration points.
  Task    75 has       1503 integration points.
  Task    76 has       1496 integration points.
  Task    77 has       1538 integration points.
  Task    78 has       1470 integration points.
  Task    79 has       1545 integration points.
  Task    80 has       1539 integration points.
  Task    81 has       1532 integration points.
  Task    82 has       1478 integration points.
  Task    83 has       1534 integration points.
  Task    84 has       1475 integration points.
  Task    85 has       1504 integration points.
  Task    86 has       1495 integration points.
  Task    87 has       1548 integration points.
  Task    88 has       1482 integration points.
  Task    89 has       1494 integration points.
  Task    90 has       1501 integration points.
  Task    91 has       1473 integration points.
  Task    92 has       1502 integration points.
  Task    93 has       1497 integration points.
  Task    94 has       1509 integration points.
  Task    95 has       1542 integration points.
  Task    96 has       1504 integration points.
  Task    97 has       1502 integration points.
  Task    98 has       1497 integration points.
  Task    99 has       1508 integration points.
  Task   100 has       1472 integration points.
  Task   101 has       1549 integration points.
  Task   102 has       1478 integration points.
  Task   103 has       1536 integration points.
  Task   104 has       1477 integration points.
  Task   105 has       1537 integration points.
  Task   106 has       1493 integration points.
  Task   107 has       1474 integration points.
  Task   108 has       1502 integration points.
  Task   109 has       1553 integration points.
  Task   110 has       1531 integration points.
  Task   111 has       1556 integration points.
  Task   112 has       1496 integration points.
  Task   113 has       1471 integration points.
  Task   114 has       1489 integration points.
  Task   115 has       1499 integration points.
  Task   116 has       1473 integration points.
  Task   117 has       1536 integration points.
  Task   118 has       1515 integration points.
  Task   119 has       1518 integration points.
  Task   120 has       1508 integration points.
  Task   121 has       1490 integration points.
  Task   122 has       1537 integration points.
[...]
    212       0.00000                       1.855057           1.855819             0.000000
    213       0.00000                       2.691741           2.692130             0.836311
    214       0.00000                       2.691741           2.692130             0.000000
    215       0.00000                       2.886357           2.887657             0.195527
    216       0.00000                       2.886357           2.887657             0.000000
    217       0.00000                       3.543273           3.542773             0.655116
    218       0.00000                       3.543273           3.542773             0.000000
    219       0.00000                       3.734606           3.736526             0.193753
    220       0.00000                       3.734606           3.736526             0.000000
    221       0.00000                       4.429888           4.430098             0.693572
    222       0.00000                       4.429888           4.430098             0.000000
    223       0.00000                       4.666426           4.660283             0.230185
    224       0.00000                       4.666426           4.660283             0.000000
    225       0.00000                       4.730319           4.747193             0.086910
    226       0.00000                       4.730319           4.747193             0.000000
    227       0.00000                       4.822571           4.822174             0.074982
    228       0.00000                       4.822571           4.822174             0.000000
    229       0.00000                       4.999469           4.998125             0.175951
    230       0.00000                       4.999469           4.998125             0.000000
    231       0.00000                       5.209399           5.216694             0.218569
    232       0.00000                       5.209399           5.216694             0.000000
    233       0.00000                       5.527664           5.528007             0.311313
    234       0.00000                       5.527664           5.528007             0.000000

  What follows are estimated values for band gap, HOMO, LUMO, etc.
  | They are estimated on a discrete k-point grid and not necessarily exact.
  | For converged numbers, create a DOS and/or band structure plot on a denser k-grid.

  Highest occupied state (VBM) at     -7.05780375 eV (relative to internal zero)
  | Occupation number:      0.99999994
  | K-point:       7 at    0.000000    0.000000    0.833333 (in units of recip. lattice)

  Lowest unoccupied state (CBM) at    -5.68655494 eV (relative to internal zero)
  | Occupation number:      0.00000000
  | K-point:     531 at    0.500000    0.000000    0.000000 (in units of recip. lattice)

  ESTIMATED overall HOMO-LUMO gap:      1.37124881 eV between HOMO at k-point 7 and LUMO at k-point 531
  | This appears to be an indirect band gap.
  | Smallest direct gap :      1.49814368 eV for k_point 531 at    0.500000    0.000000    0.000000 (in units of recip. lattice)
  The gap value is above 0.2 eV. Unless you are using a very sparse k-point grid,
  this system is most likely an insulator or a semiconductor.
  Calculating total density of states ...
  | Chemical potential is  -7.020409 eV.
  | writing DOS (shifted by electron chemical potential) to file KS_DOS_total.dat
  | writing DOS (raw data) to file KS_DOS_total_raw.dat
  | Note that, for insulating systems, the printed 'chemical potential' value is not uniquely defined.
  | It can be anywhere in the energy gap, as long as it correctly separates occupied and unoccupied states.
  | In systems with a gap, the physically relevant chemical potential is the VBM or HOMO.


  Spin-orbit coupling                                     :  max(cpu_time)    wall_clock(cpu1)
  | Computing matrix elements for SOC operator            :          1.735               1.735
  | Constructing second-variational Hamiltonian           :          0.156               0.156
  | Diagonalizing second-variational Hamiltonian          :          0.232               0.233
  | Syncing data and calculating occupations              :          0.183               0.177
  | Writing out data, calculating band gaps, etc.         :          0.005               0.007
  | Total SOC time                                        :          2.309               2.310

  Partial memory accounting:
  | Current value for overall tracked memory usage:
  |   Minimum:       27.183 MB (on task   0)
  |   Maximum:       27.776 MB (on task   1)
  |   Average:       27.202 MB
  | Peak value for overall tracked memory usage:
  |   Minimum:       79.044 MB (on task  69 after allocating potential_shell)
  |   Maximum:       82.340 MB (on task 101 after allocating potential_shell)
  |   Average:       80.608 MB
  | Largest tracked array allocation so far:
  |   Minimum:       25.039 MB (soc_matrix on task   0)
  |   Maximum:       25.039 MB (soc_matrix on task   0)
  |   Average:       25.039 MB
  Note:  These values currently only include a subset of arrays which are explicitly tracked.
  The "true" memory usage will be greater.
 ------------------------------------------------------------

  -------------------------------------------------------------------
  Writing the requested band structure output (LAPACK version):
  -------------------------------------------------------------------

  Integrating Hamiltonian matrix: batch-based integration.
  Time summed over all CPUs for integration: real work       67.549 s, elapsed       71.856 s
  Integrating SOC matrix: batch-based integration p2 version.
  Allocating        0.187 MB for dist_tab
  Allocating        0.187 MB for dist_tab_sq
  Allocating        0.560 MB for dir_tab
  Allocating        0.034 MB for i_basis_fns
  Allocating        1.100 MB for i_basis_fns_inv
  Allocating        0.034 MB for i_atom_fns
  Allocating        3.724 MB for gradient_basis_wave
  Allocating        0.009 MB for ylm_tab
  Allocating        0.002 MB for radial_wave
  Allocating        0.002 MB for radial_wave_deriv
  Allocating        0.023 MB for i_basis
  Allocating       14.028 MB for soc_shell
  Allocating        0.026 MB for cartesians
  Allocating        0.026 MB for sum_gradient
  Allocating        0.051 MB for sum_hessian
  Allocating        0.001 MB for potential_shell

  Treating all   18 k-points in band plot segment #   1:


  Scalar-relativistic "band gap" along reciprocal space direction number:    1
  | Lowest unoccupied state:      -5.68660190 eV
  | Highest occupied state :      -7.15358505 eV
  | Energy difference      :       1.46698315 eV


Spin-orbit-coupled "band gap" along reciprocal space direction number:    1
  | Lowest unoccupied state:      -5.68655494 eV
  | Highest occupied state :      -7.12890154 eV
  | Energy difference      :       1.44234661 eV


  Treating all   30 k-points in band plot segment #   2:


  Scalar-relativistic "band gap" along reciprocal space direction number:    2
  | Lowest unoccupied state:      -5.68660190 eV
  | Highest occupied state :      -7.11912412 eV
  | Energy difference      :       1.43252223 eV


Spin-orbit-coupled "band gap" along reciprocal space direction number:    2
  | Lowest unoccupied state:      -5.68655494 eV
  | Highest occupied state :      -7.11604504 eV
  | Energy difference      :       1.42949011 eV


  Treating all    4 k-points in band plot segment #   3:


  Scalar-relativistic "band gap" along reciprocal space direction number:    3
  | Lowest unoccupied state:      -5.45052730 eV
  | Highest occupied state :      -7.33601255 eV
  | Energy difference      :       1.88548524 eV


Spin-orbit-coupled "band gap" along reciprocal space direction number:    3
  | Lowest unoccupied state:      -5.45123541 eV
  | Highest occupied state :      -7.33206259 eV
  | Energy difference      :       1.88082717 eV


  Treating all   45 k-points in band plot segment #   4:


  Scalar-relativistic "band gap" along reciprocal space direction number:    4
  | Lowest unoccupied state:      -5.45052730 eV
  | Highest occupied state :      -7.34142856 eV
  | Energy difference      :       1.89090126 eV


Spin-orbit-coupled "band gap" along reciprocal space direction number:    4
  | Lowest unoccupied state:      -5.45123541 eV
  | Highest occupied state :      -7.33791967 eV
  | Energy difference      :       1.88668426 eV


  Treating all    4 k-points in band plot segment #   5:


  Scalar-relativistic "band gap" along reciprocal space direction number:    5
  | Lowest unoccupied state:      -5.06241867 eV
  | Highest occupied state :      -8.13325364 eV
  | Energy difference      :       3.07083496 eV


Spin-orbit-coupled "band gap" along reciprocal space direction number:    5
  | Lowest unoccupied state:      -5.06224055 eV
  | Highest occupied state :      -8.12976145 eV
  | Energy difference      :       3.06752090 eV


  Treating all   14 k-points in band plot segment #   6:


  Scalar-relativistic "band gap" along reciprocal space direction number:    6
  | Lowest unoccupied state:      -5.07054490 eV
  | Highest occupied state :      -8.03760723 eV
  | Energy difference      :       2.96706234 eV


Spin-orbit-coupled "band gap" along reciprocal space direction number:    6
  | Lowest unoccupied state:      -5.07037970 eV
  | Highest occupied state :      -8.03595086 eV
  | Energy difference      :       2.96557117 eV


  Treating all   45 k-points in band plot segment #   7:


  Scalar-relativistic "band gap" along reciprocal space direction number:    7
  | Lowest unoccupied state:      -5.43828166 eV
  | Highest occupied state :      -7.25994049 eV
  | Energy difference      :       1.82165883 eV


Spin-orbit-coupled "band gap" along reciprocal space direction number:    7
  | Lowest unoccupied state:      -5.43893089 eV
  | Highest occupied state :      -7.23802111 eV
  | Energy difference      :       1.79909022 eV


  Treating all   14 k-points in band plot segment #   8:


  Scalar-relativistic "band gap" along reciprocal space direction number:    8
  | Lowest unoccupied state:      -5.43828166 eV
  | Highest occupied state :      -7.25994049 eV
  | Energy difference      :       1.82165883 eV


Spin-orbit-coupled "band gap" along reciprocal space direction number:    8
  | Lowest unoccupied state:      -5.43893089 eV
  | Highest occupied state :      -7.23802111 eV
  | Energy difference      :       1.79909022 eV


  Treating all   30 k-points in band plot segment #   9:


  Scalar-relativistic "band gap" along reciprocal space direction number:    9
  | Lowest unoccupied state:      -5.03947072 eV
  | Highest occupied state :      -7.89390599 eV
  | Energy difference      :       2.85443528 eV


Spin-orbit-coupled "band gap" along reciprocal space direction number:    9
  | Lowest unoccupied state:      -5.04010227 eV
  | Highest occupied state :      -7.89217152 eV
  | Energy difference      :       2.85206925 eV


  Treating all   18 k-points in band plot segment #  10:


  Scalar-relativistic "band gap" along reciprocal space direction number:   10
  | Lowest unoccupied state:      -3.34213551 eV
  | Highest occupied state :      -7.89390599 eV
  | Energy difference      :       4.55177048 eV


Spin-orbit-coupled "band gap" along reciprocal space direction number:   10
  | Lowest unoccupied state:      -3.34584697 eV
  | Highest occupied state :      -7.89199996 eV
  | Energy difference      :       4.54615299 eV


  Treating all   45 k-points in band plot segment #  11:


  Scalar-relativistic "band gap" along reciprocal space direction number:   11
  | Lowest unoccupied state:      -5.68660190 eV
  | Highest occupied state :      -7.21522683 eV
  | Energy difference      :       1.52862493 eV


Spin-orbit-coupled "band gap" along reciprocal space direction number:   11
  | Lowest unoccupied state:      -5.68655494 eV
  | Highest occupied state :      -7.18469861 eV
  | Energy difference      :       1.49814368 eV

  Scalar-relativistic "band gap" of total set of bands:
  | Lowest unoccupied state:      -5.68660190 eV
  | Highest occupied state :      -7.11912412 eV
  | Energy difference      :       1.43252223 eV

  Spin-orbit-coupled "band gap" of total set of bands:
  | Lowest unoccupied state:      -5.68655494 eV
  | Highest occupied state :      -7.11604504 eV
  | Energy difference      :       1.42949011 eV


  Band Structure                                          :  max(cpu_time) wall_clock(cpu1)
  | Total Time                                            :          2.788            3.873
------------------------------------------------------------

------------------------------------------------------------------------------
  Final output of selected total energy values:

  The following output summarizes some interesting total energy values
  at the end of a run (AFTER all relaxation, molecular dynamics, etc.).

  | Total energy of the DFT / Hartree-Fock s.c.f. calculation      :        -262915.973097581 eV
  | Final zero-broadening corrected energy (caution - metals only) :        -262915.973097581 eV
  | Total energy after non-SC SOC correction (DO NOT USE)          :        -262916.042044381 eV
  | For reference only, the value of 1 Hartree used in FHI-aims is :             27.211384500 eV
  | For reference only, the overall average (free atom contribution
  | + realspace contribution) of the electrostatic potential after
  | s.c.f. convergence is                                          :            -15.404089427 eV

  Before relying on these values, please be sure to understand exactly which
  total energy value is referred to by a given number. Different objects may
  all carry the same name 'total energy'. Definitions:

  Total energy of the DFT / Hartree-Fock s.c.f. calculation:
  | Note that this energy does not include ANY quantities calculated after the
  | s.c.f. cycle, in particular not ANY RPA, MP2, etc. many-body perturbation terms.

  Final zero-broadening corrected energy:
  | For metallic systems only, a broadening of the occupation numbers at the Fermi
  | level can be extrapolated back to zero broadening by an electron-gas inspired
  | formula. For all systems that are not real metals, this value can be
  | meaningless and should be avoided.

------------------------------------------------------------------------------
  Methods described in the following list of references were used in this FHI-aims run.
  If you publish the results, please make sure to cite these reference if they apply.
  FHI-aims is an academic code, and for our developers (often, Ph.D. students
  and postdocs), scientific credit in the community is essential.
  Thank you for helping us!

  For any use of FHI-aims, please cite:

    Volker Blum, Ralf Gehrke, Felix Hanke, Paula Havu, Ville Havu,
    Xinguo Ren, Karsten Reuter, and Matthias Scheffler
    'Ab initio molecular simulations with numeric atom-centered orbitals'
    Computer Physics Communications 180, 2175-2196 (2009)
    http://doi.org/10.1016/j.cpc.2009.06.022


  For the 'Strongly Constrained and Appropriately Normed' (SCAN)
  meta-GGA functional, please cite:

    Jianwei Sun and Adrienn Ruzsinszky and JohnP. Perdew,
    'Strongly Constrained and Appropriately Normed Semilocal Density Functional'
     Physical Review Letters 115, 036402 (2015).


  The provided symmetry information was generated with SPGlib:

    Atsushi Togo, Yusuke Seto, Dimitar Pashov
    SPGlib 1.7.3 obtained from http://spglib.sourceforge.net
    Copyright (C) 2008 Atsushi Togo


  For second-variational spin-orbit coupling used in your run, please cite:

    William P. Huhn and Volker Blum,
    'One-hundred-three compound band-structure benchmark of post-self-consistent'
    'spin-orbit coupling treatments in density functional theory'
    Phys. Rev. Materials 1, 033803 (2017).


  The ELSI infrastructure was used in your run to solve the Kohn-Sham electronic structure.
  Please check out http://elsi-interchange.org to learn more.
  If scalability is important for your project, please acknowledge ELSI by citing:

    V. W-z. Yu, F. Corsetti, A. Garcia, W. P. Huhn, M. Jacquelin, W. Jia,
    B. Lange, L. Lin, J. Lu, W. Mi, A. Seifitokaldani, A. Vazquez-Mayagoitia,
    C. Yang, H. Yang, and V. Blum
    'ELSI: A unified software interface for Kohn-Sham electronic structure solvers'
    Computer Physics Communications 222, 267-285 (2018).
    http://doi.org/10.1016/j.cpc.2017.09.007


  For the real-space grid partitioning and parallelization used in this calculation, please cite:

    Ville Havu, Volker Blum, Paula Havu, and Matthias Scheffler,
    'Efficient O(N) integration for all-electron electronic structure calculation'
    'using numerically tabulated basis functions'
    Journal of Computational Physics 228, 8367-8379 (2009).
    http://doi.org/10.1016/j.jcp.2009.08.008

  Of course, there are many other important community references, e.g., those cited in the
  above references. Our list is limited to references that describe implementations in the
  FHI-aims code. The reason is purely practical (length of this list) - please credit others as well.

------------------------------------------------------------
          Leaving FHI-aims.
          Date     :  20220721, Time     :  105336.126

          Computational steps:
          | Number of self-consistency cycles          :           44
          | Number of SCF (re)initializations          :            1

          Detailed time accounting                     :  max(cpu_time)    wall_clock(cpu1)
          | Total time                                  :      104.559 s         104.954 s
          | Preparation time                            :        0.513 s           0.664 s
          | Boundary condition initalization            :        0.093 s           0.094 s
          | Grid partitioning                           :        0.084 s           0.084 s
          | Preloading free-atom quantities on grid     :        0.084 s           0.085 s
          | Free-atom superposition energy              :        0.009 s           0.009 s
          | Total time for integrations                 :       26.122 s          26.124 s
          | Total time for solution of K.-S. equations  :       13.454 s          13.515 s
          | Total time for density update               :       48.300 s          48.298 s
          | Total time for mixing & preconditioning     :        2.989 s           2.888 s
          | Total time for Hartree multipole update     :        0.083 s           0.083 s
          | Total time for Hartree multipole sum        :        6.106 s           6.106 s
          | Total time for total energy evaluation      :        0.103 s           0.108 s
          | Total time for scaled ZORA corrections      :        0.000 s           0.000 s
          | Total time for perturbative SOC             :        2.309 s           2.310 s
          | Total time for band structures, DOS         :        3.793 s           3.883 s

          Partial memory accounting:
          | Residual value for overall tracked memory usage across tasks:     0.000000 MB (should be 0.000000 MB)
          | Peak values for overall tracked memory usage:
          |   Minimum:       79.044 MB (on task  69 after allocating potential_shell)
          |   Maximum:       82.340 MB (on task 101 after allocating potential_shell)
          |   Average:       80.608 MB
          | Largest tracked array allocation:
          |   Minimum:       25.039 MB (soc_matrix on task   0)
          |   Maximum:       25.039 MB (soc_matrix on task   0)
          |   Average:       25.039 MB
          Note:  These values currently only include a subset of arrays which are explicitly tracked.
          The "true" memory usage will be greater.

          Have a nice day.
------------------------------------------------------------
