------------------------------------------------------------
          Invoking FHI-aims ...

          When using FHI-aims, please cite the following reference:

            Volker Blum, Ralf Gehrke, Felix Hanke, Paula Havu,
            Ville Havu, Xinguo Ren, Karsten Reuter, and Matthias Scheffler,
            'Ab Initio Molecular Simulations with Numeric Atom-Centered Orbitals',
            Computer Physics Communications 180, 2175-2196 (2009)

          In addition, many other developments in FHI-aims are likely important for
          your particular application. A partial list of references is given at the end of
          this file. Thank you for giving credit to the authors of these developments.

          For any questions about FHI-aims, please visit our slack channel at

            https://fhi-aims.slack.com

          and our main development and support site at

            https://aims-git.rz-berlin.mpg.de .

          The latter site, in particular, has a wiki to collect information, as well
          as an issue tracker to log discussions, suggest improvements, and report issues
          or bugs. https://aims-git.rz-berlin.mpg.de is also the main development site
          of the project and all new and updated code versions can be obtained there.
          Please send an email to aims-coordinators@fhi-berlin.mpg.de and we will add
          you to these sites. They are for you and everyone is welcome there.

------------------------------------------------------------



  Date     :  20220721, Time     :  105516.954
  Time zero on CPU 1             :   0.142051600000000E+01  s.
  Internal wall clock time zero  :           427632916.954  s.

  FHI-aims created a unique identifier for this run for later identification
  aims_uuid : 13C58211-67E0-4156-A18F-94B5C8C321A7

  Build configuration of the current instance of FHI-aims
  -------------------------------------------------------
  FHI-aims version      : 220619
  Commit number         : 375d76c9a
  CMake host system     : Linux-4.12.14-197.78_9.1.64-cray_shasta_c
  CMake version         : 3.22.1
  Fortran compiler      : /opt/cray/pe/craype/2.7.6/bin/ftn (GNU) version 10.2.0
  Fortran compiler flags: -O2 -fallow-argument-mismatch -ffree-line-length-none
  C compiler            : /opt/cray/pe/craype/2.7.6/bin/cc (GNU) version 10.2.0
  C compiler flags      : -O2
  Using MPI
  Using ScaLAPACK
  Using LibXC
  Using i-PI
  Using RLSY
  Linking against:

  Using      256 parallel tasks.
  Task        0 on host nid003074 reporting.
  Task        1 on host nid003074 reporting.
  Task        2 on host nid003074 reporting.
  Task        3 on host nid003074 reporting.
  Task        4 on host nid003074 reporting.
  Task        5 on host nid003074 reporting.
  Task        6 on host nid003074 reporting.
  Task        7 on host nid003074 reporting.
  Task        8 on host nid003074 reporting.
  Task        9 on host nid003074 reporting.
  Task       10 on host nid003074 reporting.
  Task       11 on host nid003074 reporting.
  Task       12 on host nid003074 reporting.
  Task       13 on host nid003074 reporting.
  Task       14 on host nid003074 reporting.
  Task       15 on host nid003074 reporting.
  Task       16 on host nid003074 reporting.
  Task       17 on host nid003074 reporting.
  Task       18 on host nid003074 reporting.
  Task       19 on host nid003074 reporting.
  Task       20 on host nid003074 reporting.
  Task       21 on host nid003074 reporting.
  Task       22 on host nid003074 reporting.
  Task       23 on host nid003074 reporting.
  Task       24 on host nid003074 reporting.
  Task       25 on host nid003074 reporting.
  Task       26 on host nid003074 reporting.
  Task       27 on host nid003074 reporting.
  Task       28 on host nid003074 reporting.
  Task       29 on host nid003074 reporting.
  Task       30 on host nid003074 reporting.
  Task       31 on host nid003074 reporting.
  Task       32 on host nid003074 reporting.
  Task       33 on host nid003074 reporting.
  Task       34 on host nid003074 reporting.
  Task       35 on host nid003074 reporting.
  Task       36 on host nid003074 reporting.
  Task       37 on host nid003074 reporting.
  Task       38 on host nid003074 reporting.
  Task       39 on host nid003074 reporting.
  Task       40 on host nid003074 reporting.
  Task       41 on host nid003074 reporting.
  Task       42 on host nid003074 reporting.
  Task       43 on host nid003074 reporting.
  Task       44 on host nid003074 reporting.
  Task       45 on host nid003074 reporting.
  Task       46 on host nid003074 reporting.
  Task       47 on host nid003074 reporting.
  Task       48 on host nid003074 reporting.
  Task       49 on host nid003074 reporting.
  Task       50 on host nid003074 reporting.
  Task       51 on host nid003074 reporting.
  Task       52 on host nid003074 reporting.
  Task       53 on host nid003074 reporting.
  Task       54 on host nid003074 reporting.
  Task       55 on host nid003074 reporting.
  Task       56 on host nid003074 reporting.
  Task       57 on host nid003074 reporting.
  Task       58 on host nid003074 reporting.
  Task       59 on host nid003074 reporting.
  Task       60 on host nid003074 reporting.
  Task       61 on host nid003074 reporting.
  Task       62 on host nid003074 reporting.
  Task       63 on host nid003074 reporting.
  Task       64 on host nid003075 reporting.
  Task       65 on host nid003075 reporting.
  Task       66 on host nid003075 reporting.
  Task       67 on host nid003075 reporting.
  Task       68 on host nid003075 reporting.
  Task       69 on host nid003075 reporting.
  Task       70 on host nid003075 reporting.
  Task       71 on host nid003075 reporting.
  Task       72 on host nid003075 reporting.
  Task       73 on host nid003075 reporting.
  Task       74 on host nid003075 reporting.
  Task       75 on host nid003075 reporting.
  Task       76 on host nid003075 reporting.
  Task       77 on host nid003075 reporting.
  Task       78 on host nid003075 reporting.
  Task       79 on host nid003075 reporting.
  Task       80 on host nid003075 reporting.
  Task       81 on host nid003075 reporting.
  Task       82 on host nid003075 reporting.
  Task       83 on host nid003075 reporting.
  Task       84 on host nid003075 reporting.
  Task       85 on host nid003075 reporting.
  Task       86 on host nid003075 reporting.
  Task       87 on host nid003075 reporting.
  Task       88 on host nid003075 reporting.
  Task       89 on host nid003075 reporting.
  Task       90 on host nid003075 reporting.
  Task       91 on host nid003075 reporting.
  Task       92 on host nid003075 reporting.
  Task       93 on host nid003075 reporting.
  Task       94 on host nid003075 reporting.
  Task       95 on host nid003075 reporting.
  Task       96 on host nid003075 reporting.
  Task       97 on host nid003075 reporting.
  Task       98 on host nid003075 reporting.
  Task       99 on host nid003075 reporting.
  Task      100 on host nid003075 reporting.
  Task      101 on host nid003075 reporting.
  Task      102 on host nid003075 reporting.
  Task      103 on host nid003075 reporting.
  Task      104 on host nid003075 reporting.
  Task      105 on host nid003075 reporting.
  Task      106 on host nid003075 reporting.
  Task      107 on host nid003075 reporting.
  Task      108 on host nid003075 reporting.
  Task      109 on host nid003075 reporting.
  Task      110 on host nid003075 reporting.
  Task      111 on host nid003075 reporting.
  Task      112 on host nid003075 reporting.
  Task      113 on host nid003075 reporting.
  Task      114 on host nid003075 reporting.
  Task      115 on host nid003075 reporting.
  Task      116 on host nid003075 reporting.
  Task      117 on host nid003075 reporting.
  Task      118 on host nid003075 reporting.
  Task      119 on host nid003075 reporting.
  Task      120 on host nid003075 reporting.
  Task      121 on host nid003075 reporting.
  Task      122 on host nid003075 reporting.
  Task      123 on host nid003075 reporting.
  Task      124 on host nid003075 reporting.
  Task      125 on host nid003075 reporting.
  Task      126 on host nid003075 reporting.
  Task      127 on host nid003075 reporting.
  Task      128 on host nid003076 reporting.
  Task      129 on host nid003076 reporting.
  Task      130 on host nid003076 reporting.
  Task      131 on host nid003076 reporting.
  Task      132 on host nid003076 reporting.
  Task      133 on host nid003076 reporting.
  Task      134 on host nid003076 reporting.
  Task      135 on host nid003076 reporting.
  Task      136 on host nid003076 reporting.
  Task      137 on host nid003076 reporting.
  Task      138 on host nid003076 reporting.
  Task      139 on host nid003076 reporting.
  Task      140 on host nid003076 reporting.
  Task      141 on host nid003076 reporting.
  Task      142 on host nid003076 reporting.
  Task      143 on host nid003076 reporting.
  Task      144 on host nid003076 reporting.
  Task      145 on host nid003076 reporting.
  Task      146 on host nid003076 reporting.
  Task      147 on host nid003076 reporting.
  Task      148 on host nid003076 reporting.
  Task      149 on host nid003076 reporting.
  Task      150 on host nid003076 reporting.
  Task      151 on host nid003076 reporting.
  Task      152 on host nid003076 reporting.
  Task      153 on host nid003076 reporting.
  Task      154 on host nid003076 reporting.
  Task      155 on host nid003076 reporting.
  Task      156 on host nid003076 reporting.
  Task      157 on host nid003076 reporting.
  Task      158 on host nid003076 reporting.
  Task      159 on host nid003076 reporting.
  Task      160 on host nid003076 reporting.
  Task      161 on host nid003076 reporting.
  Task      162 on host nid003076 reporting.
  Task      163 on host nid003076 reporting.
  Task      164 on host nid003076 reporting.
  Task      165 on host nid003076 reporting.
  Task      166 on host nid003076 reporting.
  Task      167 on host nid003076 reporting.
  Task      168 on host nid003076 reporting.
  Task      169 on host nid003076 reporting.
  Task      170 on host nid003076 reporting.
  Task      171 on host nid003076 reporting.
  Task      172 on host nid003076 reporting.
  Task      173 on host nid003076 reporting.
  Task      174 on host nid003076 reporting.
  Task      175 on host nid003076 reporting.
  Task      176 on host nid003076 reporting.
  Task      177 on host nid003076 reporting.
  Task      178 on host nid003076 reporting.
  Task      179 on host nid003076 reporting.
  Task      180 on host nid003076 reporting.
  Task      181 on host nid003076 reporting.
  Task      182 on host nid003076 reporting.
  Task      183 on host nid003076 reporting.
  Task      184 on host nid003076 reporting.
  Task      185 on host nid003076 reporting.
  Task      186 on host nid003076 reporting.
  Task      187 on host nid003076 reporting.
  Task      188 on host nid003076 reporting.
  Task      189 on host nid003076 reporting.
  Task      190 on host nid003076 reporting.
  Task      191 on host nid003076 reporting.
  Task      192 on host nid003077 reporting.
  Task      193 on host nid003077 reporting.
  Task      194 on host nid003077 reporting.
  Task      195 on host nid003077 reporting.
  Task      196 on host nid003077 reporting.
  Task      197 on host nid003077 reporting.
  Task      198 on host nid003077 reporting.
  Task      199 on host nid003077 reporting.
  Task      200 on host nid003077 reporting.
  Task      201 on host nid003077 reporting.
  Task      202 on host nid003077 reporting.
  Task      203 on host nid003077 reporting.
  Task      204 on host nid003077 reporting.
  Task      205 on host nid003077 reporting.
  Task      206 on host nid003077 reporting.
  Task      207 on host nid003077 reporting.
  Task      208 on host nid003077 reporting.
  Task      209 on host nid003077 reporting.
  Task      210 on host nid003077 reporting.
  Task      211 on host nid003077 reporting.
  Task      212 on host nid003077 reporting.
  Task      213 on host nid003077 reporting.
  Task      214 on host nid003077 reporting.
  Task      215 on host nid003077 reporting.
  Task      216 on host nid003077 reporting.
  Task      217 on host nid003077 reporting.
  Task      218 on host nid003077 reporting.
  Task      219 on host nid003077 reporting.
  Task      220 on host nid003077 reporting.
  Task      221 on host nid003077 reporting.
  Task      222 on host nid003077 reporting.
  Task      223 on host nid003077 reporting.
  Task      224 on host nid003077 reporting.
  Task      225 on host nid003077 reporting.
  Task      226 on host nid003077 reporting.
  Task      227 on host nid003077 reporting.
  Task      228 on host nid003077 reporting.
  Task      229 on host nid003077 reporting.
  Task      230 on host nid003077 reporting.
  Task      231 on host nid003077 reporting.
  Task      232 on host nid003077 reporting.
  Task      233 on host nid003077 reporting.
  Task      234 on host nid003077 reporting.
  Task      235 on host nid003077 reporting.
  Task      236 on host nid003077 reporting.
  Task      237 on host nid003077 reporting.
  Task      238 on host nid003077 reporting.
  Task      239 on host nid003077 reporting.
  Task      240 on host nid003077 reporting.
  Task      241 on host nid003077 reporting.
  Task      242 on host nid003077 reporting.
  Task      243 on host nid003077 reporting.
  Task      244 on host nid003077 reporting.
  Task      245 on host nid003077 reporting.
  Task      246 on host nid003077 reporting.
  Task      247 on host nid003077 reporting.
  Task      248 on host nid003077 reporting.
  Task      249 on host nid003077 reporting.
  Task      250 on host nid003077 reporting.
  Task      251 on host nid003077 reporting.
  Task      252 on host nid003077 reporting.
  Task      253 on host nid003077 reporting.
  Task      254 on host nid003077 reporting.
  Task      255 on host nid003077 reporting.

  Performing system and environment tests:
  | Environment variable OMP_NUM_THREADS correctly set to 1.
  | Checking for ScaLAPACK...
  | Testing pdtran()...
  | All pdtran() tests passed.

  Obtaining array dimensions for all initial allocations:
  
  -----------------------------------------------------------------------
  Parsing control.in (first pass over file, find array dimensions only).
  The contents of control.in will be repeated verbatim below
  unless switched off by setting 'verbatim_writeout .false.' .
  in the first line of control.in .
  -----------------------------------------------------------------------
  
  xc               scan
  charge           0.
  spin             none
  occupation_type gaussian 0.1
  relativistic atomic_zora scalar
  k_grid                12 12 12
  sc_accuracy_rho       1E-7
  include_spin_orbit
  output band   0.00000  0.00000  0.00000   0.50000  0.00000  0.50000   30 G  X
   output band   0.50000  0.00000  0.50000   0.50000  0.25000  0.75000   15 X  W
    output band   0.50000  0.25000  0.75000   0.37500  0.37500  0.75000   11 W  K
    output band   0.37500  0.37500  0.75000   0.00000  0.00000  0.00000   32 K  G
    output band   0.00000  0.00000  0.00000   0.50000  0.50000  0.50000   26 G  L
    output band   0.50000  0.50000  0.50000   0.62500  0.25000  0.62500   18 L  U
    output band   0.62500  0.25000  0.62500   0.50000  0.25000  0.75000   11 U  W
    output band   0.50000  0.25000  0.75000   0.50000  0.50000  0.50000   21 W  L
    output band   0.50000  0.50000  0.50000   0.37500  0.37500  0.75000   18 L  K
    output band   0.62500  0.25000  0.62500   0.50000  0.00000  0.50000   11 U  X
  output dos -10 10 51 0.1
  
  
  ################################################################################
  #
  #  FHI-aims code project
  #  VB, Fritz-Haber Institut, 2009
  #
  #  Suggested "light" defaults for Ba atom (to be pasted into control.in file)
  #  Be sure to double-check any results obtained with these settings for post-processing,
  #  e.g., with the "tight" defaults and larger basis sets.
  #
  #  2020/09/27 Increase cut_pot 4.0 -> 5.0, radial_base 5.5 -> 6.5 AA
  #             for better description of metallic Ba.
  #
  ################################################################################
    species          Ba
  #     global species definitions
      nucleus        56
      mass           137.327
  #
      l_hartree      4
  #
      cut_pot        5.0  1.5  1.0
      basis_dep_cutoff    1e-4
  #
      radial_base    65  6.5
      radial_multiplier  1
      angular_grids specified
        division   0.6752  110
        division   0.9746  194
        division   1.2241  302
  #      division   1.3850  434
  #      division   1.4734  590
  #      division   1.6010  770
  #      division   4.8366  974
  #      outer_grid  974
        outer_grid  302
  ################################################################################
  #
  #  Definition of "minimal" basis
  #
  ################################################################################
  #     valence basis states
      valence      6  s   2.
      valence      5  p   6.
      valence      4  d  10.
  #     ion occupancy
      ion_occ      6  s   1.
      ion_occ      5  p   6.
      ion_occ      4  d  10.
  ################################################################################
  #
  #  Suggested additional basis functions. For production calculations,
  #  uncomment them one after another (the most important basis functions are
  #  listed first).
  #
  #  Constructed for dimers: 2.65, 3.00, 3.50, 4.40, 5.50 Ang
  #
  ################################################################################
  #  "First tier" - improvements: -1277.43 meV to -9.16 meV
       ionic 5 d auto
       ionic 4 f auto
       hydro 3 p 2.7
       hydro 4 s 3.3
  #  "Second tier" - improvements: -64.04 (!) meV to -0.25 meV
  #     hydro 4 f 5.8
  #     hydro 5 g 7.4
  #     hydro 4 d 4.5
  #     hydro 6 h 11.2
  #     hydro 5 p 6.6
  #     hydro 2 s 3.2
  #  "Third tier" - max. impr. -1.16 meV, min. impr. -0.08 meV
  #     hydro 5 f 7.4
  #     hydro 5 g 10.8
  #     hydro 4 d 2.3
  #     hydro 4 p 3.7
  #     hydro 5 s 4.0
  #  Further functions - impr. -0.35 meV and below
  #     hydro 5 d 3.5
  #     hydro 6 d 0.4
  #     hydro 2 p 2.5
  #     hydro 5 f 12
  #     hydro 6 d 8.8
  ################################################################################
  #
  #  FHI-aims code project
  #  VB, Fritz-Haber Institut, 2009
  #
  #  Suggested "light" defaults for Zr atom (to be pasted into control.in file)
  #  Be sure to double-check any results obtained with these settings for post-processing,
  #  e.g., with the "tight" defaults and larger basis sets.
  #
  ################################################################################
    species          Zr
  #     global species definitions
      nucleus        40
      mass           91.224
  #
      l_hartree      4
  #
      cut_pot        3.5  1.5  1.0
      basis_dep_cutoff    1e-4
  #
      radial_base    58  5.0
      radial_multiplier  1
      angular_grids specified
        division   0.5825   50
        division   1.1060  110
        division   1.4586  194
        division   1.7061  302
  #      division   1.9320  434
  #      division   2.2803  590
  #      division   2.4151  770
  #      division   2.4626  974
  #      division   3.1649 1202
  #      outer_grid  974
        outer_grid  302
  ################################################################################
  #
  #  Definition of "minimal" basis
  #
  ################################################################################
  #     valence basis states
      valence      5  s   2.
      valence      4  p   6.
      valence      4  d   2.
  #     ion occupancy
      ion_occ      5  s   1.
      ion_occ      4  p   6.
      ion_occ      4  d   1.
  ################################################################################
  #
  #  Suggested additional basis functions. For production calculations,
  #  uncomment them one after another (the most important basis functions are
  #  listed first).
  #
  #  Constructed for dimers: 1.9, 2.25, 3.00, 4.00 Ang
  #
  ################################################################################
  #  "First tier" - improvements: -605.96 meV to -18.06 meV
       hydro 4 f 7.2
       ionic 4 d auto
       ionic 5 p auto
  #     hydro 5 g 10.4
       ionic 5 s auto
  #  "Second tier" - improvements: -32.47 meV to -1.41 meV
  #     hydro 4 f 10.4
  #     hydro 6 h 14.8
  #     hydro 4 d 6.2
  #     hydro 4 p 4.4
  #     hydro 4 f 20
  #     hydro 5 s 6
  #  "Third tier" - improvements: -1.99 meV and lower.
  #     hydro 4 f 5.8
  #     hydro 5 g 10.8
  #     hydro 2 p 1
  #     hydro 3 d 8
  #     hydro 6 h 14.4
  #     hydro 1 s 0.9
  #  Further functions (approx -0.40 meV and below possible)
  ################################################################################
  #
  #  FHI-aims code project
  #  VB, Fritz-Haber Institut, 2009
  #
  #  Suggested "light" defaults for S atom (to be pasted into control.in file)
  #  Be sure to double-check any results obtained with these settings for post-processing,
  #  e.g., with the "tight" defaults and larger basis sets.
  #
  #  2020/09/08 Added f function to "light" after reinspection of Delta test outcomes.
  #             This was done for all of Al-Cl and is a tricky decision since it makes
  #             "light" calculations measurably more expensive for these elements.
  #             Nevertheless, outcomes for P, S, Cl (and to some extent, Si) appear
  #             to justify this choice.
  #
  ################################################################################
    species        S
  #     global species definitions
      nucleus             16
      mass                32.065
  #
      l_hartree           4
  #
      cut_pot             3.5          1.5  1.0
      basis_dep_cutoff    1e-4
  #
      radial_base         44 5.0
      radial_multiplier   1
      angular_grids       specified
        division   0.4665  110
        division   0.5810  194
        division   0.7139  302
  #      division   0.8274  434
  #      division   0.9105  590
  #      division   1.0975  770
  #      division   1.2028  974
  #      outer_grid  974
        outer_grid  302
  ################################################################################
  #
  #  Definition of "minimal" basis
  #
  ################################################################################
  #     valence basis states
      valence      3  s   2.
      valence      3  p   4.
  #     ion occupancy
      ion_occ      3  s   1.
      ion_occ      3  p   3.
  ################################################################################
  #
  #  Suggested additional basis functions. For production calculations,
  #  uncomment them one after another (the most important basis functions are
  #  listed first).
  #
  #  Constructed for dimers: 1.6 A, 1.9 A, 2.5 A, 3.25 A, 4.0 A
  #
  ################################################################################
  #  "First tier" - improvements: -652.81 meV to -45.53 meV
       ionic 3 d auto
       hydro 2 p 1.8
       hydro 4 f 7
       ionic 3 s auto
  #  "Second tier" - improvements: -30.20 meV to -1.74 meV
  #     hydro 4 d 6.2
  #     hydro 5 g 10.8
  #     hydro 4 p 4.9
  #     hydro 5 f 10
  #     hydro 1 s 0.8
  #  "Third tier" - improvements: -1.04 meV to -0.20 meV
  #     hydro 3 d 3.9
  #     hydro 3 d 2.7
  #     hydro 5 g 12
  #     hydro 4 p 10.4
  #     hydro 5 f 12.4
  #     hydro 2 s 1.9
  #  "Fourth tier" - improvements: -0.35 meV to -0.06 meV
  #     hydro 4 d 10.4
  #     hydro 4 p 7.2
  #     hydro 4 d 10
  #     hydro 5 g 19.2
  #     hydro 4 s 12
  
  
  -----------------------------------------------------------------------
  Completed first pass over input file control.in .
  -----------------------------------------------------------------------
  
  
  -----------------------------------------------------------------------
  Parsing geometry.in (first pass over file, find array dimensions only).
  The contents of geometry.in will be repeated verbatim below
  unless switched off by setting 'verbatim_writeout .false.' .
  in the first line of geometry.in .
  -----------------------------------------------------------------------
  
  #
  # This is the geometry file that corresponds to the current relaxation step.
  # If you do not want this file to be written, set the "write_restart_geometry" flag to .false.
  #  aims_uuid : 02EB0C89-2F27-408F-A709-25EC468D9C14
  #
  lattice_vector      0.00000000      5.32144380      5.32144380
  lattice_vector      5.32144380      0.00000000      5.32144380
  lattice_vector      5.32144380      5.32144380      0.00000000
  atom_frac       0.74383196      0.74383196      0.74383196 S
  atom_frac       0.74383196      0.74383196      0.26850412 S
  atom_frac       0.74383196      0.26850412      0.74383196 S
  atom_frac       0.26850412      0.74383196      0.74383196 S
  atom_frac       0.25616804      0.25616804      0.73149588 S
  atom_frac       0.25616804      0.25616804      0.25616804 S
  atom_frac       0.25616804      0.73149588      0.25616804 S
  atom_frac       0.73149588      0.25616804      0.25616804 S
  atom_frac       0.12500000      0.12500000      0.12500000 Zr
  atom_frac       0.87500000      0.87500000      0.87500000 Zr
  atom_frac       0.50000000      0.50000000      0.50000000 Zr
  atom_frac       0.50000000      0.50000000      1.00000000 Zr
  atom_frac       0.50000000      0.00000000      0.50000000 Zr
  atom_frac       0.00000000      0.50000000      0.50000000 Zr
  #
  # What follows is the current estimated Hessian matrix constructed by the BFGS algorithm.
  # This is NOT the true Hessian matrix of the system.
  # If you do not want this information here, switch it off using the "hessian_to_restart_geometry" keyword.
  #
  trust_radius             0.4000000060
  hessian_block                1       1        1166.977319           0.000000           0.000000           0.000000           0.00000
  hessian_block_lv             1       1          15.688310           0.000000           0.000000           0.000000           0.00000
  hessian_block_lv_atom        1       1           1.868408           0.000000           0.000000           0.000000           0.00000
  
  -----------------------------------------------------------------------
  Completed first pass over input file geometry.in .
  -----------------------------------------------------------------------
  

  Basic array size parameters:
  | Number of species                 :        3
  | Number of atoms                   :       14
  | Number of lattice vectors         :        3
  | Max. basis fn. angular momentum   :        3
  | Max. atomic/ionic basis occupied n:        6
  | Max. number of basis fn. types    :        3
  | Max. radial fns per species/type  :       12
  | Max. logarithmic grid size        :     1460
  | Max. radial integration grid size :       65
  | Max. angular integration grid size:      302
  | Max. angular grid division number :        8
  | Radial grid for Hartree potential :     1460
  | Number of spin channels           :        1

------------------------------------------------------------
          Reading file control.in.
------------------------------------------------------------
  XC: Using the parameter-free meta-GGA functional SCAN.
  Charge =   0.000000E+00: Neutral system requested explicitly.
  Spin treatment: No spin polarisation.
  Occupation type: Gaussian broadening, width =   0.100000E+00 eV.
  Scalar relativistic treatment of kinetic energy: on-site free-atom approximation to ZORA.
  Found k-point grid:        12        12        12
  Convergence accuracy of self-consistent charge density:  0.1000E-06
  Calculating non-self-consistent second-variational spin-orbit coupling after scf-cycle

  Plot band    1
  | begin  0.000000  0.000000  0.000000
  | end    0.500000  0.000000  0.500000
  | number of points:   30

  Plot band    2
  | begin  0.500000  0.000000  0.500000
  | end    0.500000  0.250000  0.750000
  | number of points:   15

  Plot band    3
  | begin  0.500000  0.250000  0.750000
  | end    0.375000  0.375000  0.750000
  | number of points:   11

  Plot band    4
  | begin  0.375000  0.375000  0.750000
  | end    0.000000  0.000000  0.000000
  | number of points:   32

  Plot band    5
  | begin  0.000000  0.000000  0.000000
  | end    0.500000  0.500000  0.500000
  | number of points:   26

  Plot band    6
  | begin  0.500000  0.500000  0.500000
  | end    0.625000  0.250000  0.625000
  | number of points:   18

  Plot band    7
  | begin  0.625000  0.250000  0.625000
  | end    0.500000  0.250000  0.750000
  | number of points:   11

  Plot band    8
  | begin  0.500000  0.250000  0.750000
  | end    0.500000  0.500000  0.500000
  | number of points:   21

  Plot band    9
  | begin  0.500000  0.500000  0.500000
  | end    0.375000  0.375000  0.750000
  | number of points:   18

  Plot band   10
  | begin  0.625000  0.250000  0.625000
  | end    0.500000  0.000000  0.500000
  | number of points:   11
  Calculating density of states with
  | energy interval :-10.000000 10.000000
  | points & broadening :    51  0.100000

  Reading configuration options for species Ba                  .
  | Found nuclear charge :  56.0000
  | Found atomic mass :    137.32700000000000      amu
  | Found l_max for Hartree potential  :   4
  | Found cutoff potl. onset [A], width [A], scale factor :    5.00000    1.50000    1.00000
  | Threshold for basis-dependent cutoff potential is   0.100000E-03
  | Found data for basic radial integration grid :    65 points, outermost radius =    6.500 A
  | Found multiplier for basic radial grid :   1
  | Found angular grid specification: user-specified.
  | Specified grid contains     4 separate shells.
  | Check grid settings after all constraints further below.
  | Found free-atom valence shell :  6 s   2.000
  | Found free-atom valence shell :  5 p   6.000
  | Found free-atom valence shell :  4 d  10.000
  | Found free-ion valence shell :  6 s   1.000
  | Found free-ion valence shell :  5 p   6.000
  | Found free-ion valence shell :  4 d  10.000
  | Found ionic basis function :  5 d , default cutoff radius.
  | Found ionic basis function :  4 f , default cutoff radius.
  | Found hydrogenic basis function :  3 p   2.700
  | Found hydrogenic basis function :  4 s   3.300
  Species Ba                  : Missing cutoff potential type.
  Defaulting to exp(1/x)/(1-x)^2 type cutoff potential.
  Species Ba: No 'logarithmic' tag. Using default grid for free atom:
  | Default logarithmic grid data [bohr] : 0.1000E-03 0.1000E+03 0.1012E+01
  | Will include ionic basis functions of  1.0-fold positive Ba                   ion.
  Species Ba: On-site basis accuracy parameter (for Gram-Schmidt orthonormalisation) not specified.
  Using default value basis_acc =  0.1000000E-03.
  Species Ba                  : Using default innermost maximum threshold i_radial=  2 for radial functions.
  Species Ba                  : Default cutoff onset for free atom density etc. : 0.50000000E+01 AA.
  Species Ba                  : Basic radial grid will be enhanced according to radial_multiplier =   1, to contain    65 grid points.

  Reading configuration options for species Zr                  .
  | Found nuclear charge :  40.0000
  | Found atomic mass :    91.224000000000004      amu
  | Found l_max for Hartree potential  :   4
  | Found cutoff potl. onset [A], width [A], scale factor :    3.50000    1.50000    1.00000
  | Threshold for basis-dependent cutoff potential is   0.100000E-03
  | Found data for basic radial integration grid :    58 points, outermost radius =    5.000 A
  | Found multiplier for basic radial grid :   1
  | Found angular grid specification: user-specified.
  | Specified grid contains     5 separate shells.
  | Check grid settings after all constraints further below.
  | Found free-atom valence shell :  5 s   2.000
  | Found free-atom valence shell :  4 p   6.000
  | Found free-atom valence shell :  4 d   2.000
  | Found free-ion valence shell :  5 s   1.000
  | Found free-ion valence shell :  4 p   6.000
  | Found free-ion valence shell :  4 d   1.000
  | Found hydrogenic basis function :  4 f   7.200
  | Found ionic basis function :  4 d , default cutoff radius.
  | Found ionic basis function :  5 p , default cutoff radius.
  | Found ionic basis function :  5 s , default cutoff radius.
  Species Zr                  : Missing cutoff potential type.
  Defaulting to exp(1/x)/(1-x)^2 type cutoff potential.
  Species Zr: No 'logarithmic' tag. Using default grid for free atom:
  | Default logarithmic grid data [bohr] : 0.1000E-03 0.1000E+03 0.1012E+01
  | Will include ionic basis functions of  2.0-fold positive Zr                   ion.
  Species Zr: On-site basis accuracy parameter (for Gram-Schmidt orthonormalisation) not specified.
  Using default value basis_acc =  0.1000000E-03.
  Species Zr                  : Using default innermost maximum threshold i_radial=  2 for radial functions.
  Species Zr                  : Default cutoff onset for free atom density etc. : 0.35000000E+01 AA.
  Species Zr                  : Basic radial grid will be enhanced according to radial_multiplier =   1, to contain    58 grid points.

  Reading configuration options for species S                   .
  | Found nuclear charge :  16.0000
  | Found atomic mass :    32.064999999999998      amu
  | Found l_max for Hartree potential  :   4
  | Found cutoff potl. onset [A], width [A], scale factor :    3.50000    1.50000    1.00000
  | Threshold for basis-dependent cutoff potential is   0.100000E-03
  | Found data for basic radial integration grid :    44 points, outermost radius =    5.000 A
  | Found multiplier for basic radial grid :   1
  | Found angular grid specification: user-specified.
  | Specified grid contains     4 separate shells.
  | Check grid settings after all constraints further below.
  | Found free-atom valence shell :  3 s   2.000
  | Found free-atom valence shell :  3 p   4.000
  | Found free-ion valence shell :  3 s   1.000
  | Found free-ion valence shell :  3 p   3.000
  | Found ionic basis function :  3 d , default cutoff radius.
  | Found hydrogenic basis function :  2 p   1.800
  | Found hydrogenic basis function :  4 f   7.000
  | Found ionic basis function :  3 s , default cutoff radius.
  Species S                   : Missing cutoff potential type.
  Defaulting to exp(1/x)/(1-x)^2 type cutoff potential.
  Species S : No 'logarithmic' tag. Using default grid for free atom:
  | Default logarithmic grid data [bohr] : 0.1000E-03 0.1000E+03 0.1012E+01
  | Will include ionic basis functions of  2.0-fold positive S                    ion.
  Species S : On-site basis accuracy parameter (for Gram-Schmidt orthonormalisation) not specified.
  Using default value basis_acc =  0.1000000E-03.
  Species S                   : Using default innermost maximum threshold i_radial=  2 for radial functions.
  Species S                   : Default cutoff onset for free atom density etc. : 0.35000000E+01 AA.
  Species S                   : Basic radial grid will be enhanced according to radial_multiplier =   1, to contain    44 grid points.

  Finished reading input file 'control.in'.

------------------------------------------------------------


------------------------------------------------------------
          Reading geometry description geometry.in.
------------------------------------------------------------
 * Large trust radius value found - resetting to the current value of max_atomic_move,      0.20000000 A.
  | The smallest distance between any two atoms is         2.41795454 AA.
  | The first atom of this pair is atom number                      1 .
  | The second atom of this pair is atom number                    10 .
  | Wigner-Seitz cell of the first atom image           0     0     0 .
  | (The Wigner-Seitz cell of the second atom is 0 0 0  by definition.)

  Symmetry information by spglib:
  | Precision set to  0.1E-04
  | Number of Operations  : 48
  | Space group           : 227
  | International         : Fd-3m
  | Schoenflies           : Oh^7
  Input structure read successfully.
  The structure contains       14 atoms,  and a total of        368.000 electrons.

  Input geometry:
  | Unit cell:
  |        0.00000000        5.32144380        5.32144380
  |        5.32144380        0.00000000        5.32144380
  |        5.32144380        5.32144380        0.00000000
  | Atomic structure:
  |       Atom                x [A]            y [A]            z [A]
  |    1: Species S             7.91651994        7.91651994        7.91651994
  |    2: Species S             5.38708956        5.38708956        7.91651994
  |    3: Species S             5.38708956        7.91651994        5.38708956
  |    4: Species S             7.91651994        5.38708956        5.38708956
  |    5: Species S             5.25579804        5.25579804        2.72636766
  |    6: Species S             2.72636766        2.72636766        2.72636766
  |    7: Species S             5.25579804        2.72636766        5.25579804
  |    8: Species S             2.72636766        5.25579804        5.25579804
  |    9: Species Zr            1.33036095        1.33036095        1.33036095
  |   10: Species Zr            9.31252665        9.31252665        9.31252665
  |   11: Species Zr            5.32144380        5.32144380        5.32144380
  |   12: Species Zr            7.98216570        7.98216570        5.32144380
  |   13: Species Zr            2.66072190        5.32144380        2.66072190
  |   14: Species Zr            5.32144380        2.66072190        2.66072190

  Lattice parameters for 3D lattice (in Angstroms) :     7.525658    7.525658    7.525658
  Angle(s) between unit vectors (in degrees)       :    60.000000   60.000000   60.000000


  Quantities derived from the lattice vectors (in Angstrom^-1):
  | Reciprocal lattice vector 1: -0.590365  0.590365  0.590365
  | Reciprocal lattice vector 2:  0.590365 -0.590365  0.590365
  | Reciprocal lattice vector 3:  0.590365  0.590365 -0.590365
  | Unit cell volume                               :   0.301383E+03  Angstrom^3

  Fractional coordinates:
                         L1                L2                L3
       atom_frac         0.74383196        0.74383196        0.74383196  S
       atom_frac         0.74383196        0.74383196        0.26850412  S
       atom_frac         0.74383196        0.26850412        0.74383196  S
       atom_frac         0.26850412        0.74383196        0.74383196  S
       atom_frac         0.25616804        0.25616804        0.73149588  S
       atom_frac         0.25616804        0.25616804        0.25616804  S
       atom_frac         0.25616804        0.73149588        0.25616804  S
       atom_frac         0.73149588        0.25616804        0.25616804  S
       atom_frac         0.12500000        0.12500000        0.12500000  Zr
       atom_frac         0.87500000        0.87500000        0.87500000  Zr
       atom_frac         0.50000000        0.50000000        0.50000000  Zr
       atom_frac         0.50000000        0.50000000        1.00000000  Zr
       atom_frac         0.50000000       -0.00000000        0.50000000  Zr
       atom_frac        -0.00000000        0.50000000        0.50000000  Zr


  Finished reading input file 'control.in'.


------------------------------------------------------------
          Reading geometry description geometry.in.
------------------------------------------------------------

  Consistency checks for stacksize environment parameter are next.

  | Maximum stacksize for task 0: unlimited
  | Maximum stacksize for task 1: unlimited
  | Maximum stacksize for task 2: unlimited
  | Maximum stacksize for task 3: unlimited
  | Maximum stacksize for task 4: unlimited
  | Maximum stacksize for task 5: unlimited
  | Maximum stacksize for task 6: unlimited
  | Maximum stacksize for task 7: unlimited
  | Maximum stacksize for task 8: unlimited
  | Maximum stacksize for task 9: unlimited
  | Maximum stacksize for task 10: unlimited
  | Maximum stacksize for task 11: unlimited
  | Maximum stacksize for task 12: unlimited
  | Maximum stacksize for task 13: unlimited
  | Maximum stacksize for task 14: unlimited
  | Maximum stacksize for task 15: unlimited
  | Maximum stacksize for task 16: unlimited
  | Maximum stacksize for task 17: unlimited
  | Maximum stacksize for task 18: unlimited
  | Maximum stacksize for task 19: unlimited
  | Maximum stacksize for task 20: unlimited
  | Maximum stacksize for task 21: unlimited
  | Maximum stacksize for task 22: unlimited
  | Maximum stacksize for task 23: unlimited
  | Maximum stacksize for task 24: unlimited
  | Maximum stacksize for task 25: unlimited
  | Maximum stacksize for task 26: unlimited
  | Maximum stacksize for task 27: unlimited
  | Maximum stacksize for task 28: unlimited
  | Maximum stacksize for task 29: unlimited
  | Maximum stacksize for task 30: unlimited
  | Maximum stacksize for task 31: unlimited
  | Maximum stacksize for task 32: unlimited
  | Maximum stacksize for task 33: unlimited
  | Maximum stacksize for task 34: unlimited
  | Maximum stacksize for task 35: unlimited
  | Maximum stacksize for task 36: unlimited
  | Maximum stacksize for task 37: unlimited
  | Maximum stacksize for task 38: unlimited
  | Maximum stacksize for task 39: unlimited
  | Maximum stacksize for task 40: unlimited
  | Maximum stacksize for task 41: unlimited
  | Maximum stacksize for task 42: unlimited
  | Maximum stacksize for task 43: unlimited
  | Maximum stacksize for task 44: unlimited
  | Maximum stacksize for task 45: unlimited
  | Maximum stacksize for task 46: unlimited
  | Maximum stacksize for task 47: unlimited
  | Maximum stacksize for task 48: unlimited
  | Maximum stacksize for task 49: unlimited
  | Maximum stacksize for task 50: unlimited
  | Maximum stacksize for task 51: unlimited
  | Maximum stacksize for task 52: unlimited
  | Maximum stacksize for task 53: unlimited
  | Maximum stacksize for task 54: unlimited
  | Maximum stacksize for task 55: unlimited
  | Maximum stacksize for task 56: unlimited
  | Maximum stacksize for task 57: unlimited
  | Maximum stacksize for task 58: unlimited
  | Maximum stacksize for task 59: unlimited
  | Maximum stacksize for task 60: unlimited
  | Maximum stacksize for task 61: unlimited
  | Maximum stacksize for task 62: unlimited
  | Maximum stacksize for task 63: unlimited
  | Maximum stacksize for task 64: unlimited
  | Maximum stacksize for task 65: unlimited
  | Maximum stacksize for task 66: unlimited
  | Maximum stacksize for task 67: unlimited
  | Maximum stacksize for task 68: unlimited
  | Maximum stacksize for task 69: unlimited
  | Maximum stacksize for task 70: unlimited
  | Maximum stacksize for task 71: unlimited
  | Maximum stacksize for task 72: unlimited
  | Maximum stacksize for task 73: unlimited
  | Maximum stacksize for task 74: unlimited
  | Maximum stacksize for task 75: unlimited
  | Maximum stacksize for task 76: unlimited
  | Maximum stacksize for task 77: unlimited
  | Maximum stacksize for task 78: unlimited
  | Maximum stacksize for task 79: unlimited
  | Maximum stacksize for task 80: unlimited
  | Maximum stacksize for task 81: unlimited
  | Maximum stacksize for task 82: unlimited
  | Maximum stacksize for task 83: unlimited
  | Maximum stacksize for task 84: unlimited
  | Maximum stacksize for task 85: unlimited
  | Maximum stacksize for task 86: unlimited
  | Maximum stacksize for task 87: unlimited
  | Maximum stacksize for task 88: unlimited
  | Maximum stacksize for task 89: unlimited
  | Maximum stacksize for task 90: unlimited
  | Maximum stacksize for task 91: unlimited
  | Maximum stacksize for task 92: unlimited
  | Maximum stacksize for task 93: unlimited
  | Maximum stacksize for task 94: unlimited
  | Maximum stacksize for task 95: unlimited
  | Maximum stacksize for task 96: unlimited
  | Maximum stacksize for task 97: unlimited
  | Maximum stacksize for task 98: unlimited
  | Maximum stacksize for task 99: unlimited
  | Maximum stacksize for task 100: unlimited
  | Maximum stacksize for task 101: unlimited
  | Maximum stacksize for task 102: unlimited
  | Maximum stacksize for task 103: unlimited
  | Maximum stacksize for task 104: unlimited
  | Maximum stacksize for task 105: unlimited
  | Maximum stacksize for task 106: unlimited
  | Maximum stacksize for task 107: unlimited
  | Maximum stacksize for task 108: unlimited
  | Maximum stacksize for task 109: unlimited
  | Maximum stacksize for task 110: unlimited
  | Maximum stacksize for task 111: unlimited
  | Maximum stacksize for task 112: unlimited
  | Maximum stacksize for task 113: unlimited
  | Maximum stacksize for task 114: unlimited
  | Maximum stacksize for task 115: unlimited
  | Maximum stacksize for task 116: unlimited
  | Maximum stacksize for task 117: unlimited
  | Maximum stacksize for task 118: unlimited
  | Maximum stacksize for task 119: unlimited
  | Maximum stacksize for task 120: unlimited
  | Maximum stacksize for task 121: unlimited
  | Maximum stacksize for task 122: unlimited
  | Maximum stacksize for task 123: unlimited
  | Maximum stacksize for task 124: unlimited
  | Maximum stacksize for task 125: unlimited
  | Maximum stacksize for task 126: unlimited
  | Maximum stacksize for task 127: unlimited
  | Maximum stacksize for task 128: unlimited
  | Maximum stacksize for task 129: unlimited
  | Maximum stacksize for task 130: unlimited
  | Maximum stacksize for task 131: unlimited
  | Maximum stacksize for task 132: unlimited
  | Maximum stacksize for task 133: unlimited
  | Maximum stacksize for task 134: unlimited
  | Maximum stacksize for task 135: unlimited
  | Maximum stacksize for task 136: unlimited
  | Maximum stacksize for task 137: unlimited
  | Maximum stacksize for task 138: unlimited
  | Maximum stacksize for task 139: unlimited
  | Maximum stacksize for task 140: unlimited
  | Maximum stacksize for task 141: unlimited
  | Maximum stacksize for task 142: unlimited
  | Maximum stacksize for task 143: unlimited
  | Maximum stacksize for task 144: unlimited
  | Maximum stacksize for task 145: unlimited
  | Maximum stacksize for task 146: unlimited
  | Maximum stacksize for task 147: unlimited
  | Maximum stacksize for task 148: unlimited
  | Maximum stacksize for task 149: unlimited
  | Maximum stacksize for task 150: unlimited
  | Maximum stacksize for task 151: unlimited
  | Maximum stacksize for task 152: unlimited
  | Maximum stacksize for task 153: unlimited
  | Maximum stacksize for task 154: unlimited
  | Maximum stacksize for task 155: unlimited
  | Maximum stacksize for task 156: unlimited
  | Maximum stacksize for task 157: unlimited
  | Maximum stacksize for task 158: unlimited
  | Maximum stacksize for task 159: unlimited
  | Maximum stacksize for task 160: unlimited
  | Maximum stacksize for task 161: unlimited
  | Maximum stacksize for task 162: unlimited
  | Maximum stacksize for task 163: unlimited
  | Maximum stacksize for task 164: unlimited
  | Maximum stacksize for task 165: unlimited
  | Maximum stacksize for task 166: unlimited
  | Maximum stacksize for task 167: unlimited
  | Maximum stacksize for task 168: unlimited
  | Maximum stacksize for task 169: unlimited
  | Maximum stacksize for task 170: unlimited
  | Maximum stacksize for task 171: unlimited
  | Maximum stacksize for task 172: unlimited
  | Maximum stacksize for task 173: unlimited
  | Maximum stacksize for task 174: unlimited
  | Maximum stacksize for task 175: unlimited
  | Maximum stacksize for task 176: unlimited
  | Maximum stacksize for task 177: unlimited
  | Maximum stacksize for task 178: unlimited
  | Maximum stacksize for task 179: unlimited
  | Maximum stacksize for task 180: unlimited
  | Maximum stacksize for task 181: unlimited
  | Maximum stacksize for task 182: unlimited
  | Maximum stacksize for task 183: unlimited
  | Maximum stacksize for task 184: unlimited
  | Maximum stacksize for task 185: unlimited
  | Maximum stacksize for task 186: unlimited
  | Maximum stacksize for task 187: unlimited
  | Maximum stacksize for task 188: unlimited
  | Maximum stacksize for task 189: unlimited
  | Maximum stacksize for task 190: unlimited
  | Maximum stacksize for task 191: unlimited
  | Maximum stacksize for task 192: unlimited
  | Maximum stacksize for task 193: unlimited
  | Maximum stacksize for task 194: unlimited
  | Maximum stacksize for task 195: unlimited
  | Maximum stacksize for task 196: unlimited
  | Maximum stacksize for task 197: unlimited
  | Maximum stacksize for task 198: unlimited
  | Maximum stacksize for task 199: unlimited
  | Maximum stacksize for task 200: unlimited
  | Maximum stacksize for task 201: unlimited
  | Maximum stacksize for task 202: unlimited
  | Maximum stacksize for task 203: unlimited
  | Maximum stacksize for task 204: unlimited
  | Maximum stacksize for task 205: unlimited
  | Maximum stacksize for task 206: unlimited
  | Maximum stacksize for task 207: unlimited
  | Maximum stacksize for task 208: unlimited
  | Maximum stacksize for task 209: unlimited
  | Maximum stacksize for task 210: unlimited
  | Maximum stacksize for task 211: unlimited
  | Maximum stacksize for task 212: unlimited
  | Maximum stacksize for task 213: unlimited
  | Maximum stacksize for task 214: unlimited
  | Maximum stacksize for task 215: unlimited
  | Maximum stacksize for task 216: unlimited
  | Maximum stacksize for task 217: unlimited
  | Maximum stacksize for task 218: unlimited
  | Maximum stacksize for task 219: unlimited
  | Maximum stacksize for task 220: unlimited
  | Maximum stacksize for task 221: unlimited
  | Maximum stacksize for task 222: unlimited
  | Maximum stacksize for task 223: unlimited
  | Maximum stacksize for task 224: unlimited
  | Maximum stacksize for task 225: unlimited
  | Maximum stacksize for task 226: unlimited
  | Maximum stacksize for task 227: unlimited
  | Maximum stacksize for task 228: unlimited
  | Maximum stacksize for task 229: unlimited
  | Maximum stacksize for task 230: unlimited
  | Maximum stacksize for task 231: unlimited
  | Maximum stacksize for task 232: unlimited
  | Maximum stacksize for task 233: unlimited
  | Maximum stacksize for task 234: unlimited
  | Maximum stacksize for task 235: unlimited
  | Maximum stacksize for task 236: unlimited
  | Maximum stacksize for task 237: unlimited
  | Maximum stacksize for task 238: unlimited
  | Maximum stacksize for task 239: unlimited
  | Maximum stacksize for task 240: unlimited
  | Maximum stacksize for task 241: unlimited
  | Maximum stacksize for task 242: unlimited
  | Maximum stacksize for task 243: unlimited
  | Maximum stacksize for task 244: unlimited
  | Maximum stacksize for task 245: unlimited
  | Maximum stacksize for task 246: unlimited
  | Maximum stacksize for task 247: unlimited
  | Maximum stacksize for task 248: unlimited
  | Maximum stacksize for task 249: unlimited
  | Maximum stacksize for task 250: unlimited
  | Maximum stacksize for task 251: unlimited
  | Maximum stacksize for task 252: unlimited
  | Maximum stacksize for task 253: unlimited
  | Maximum stacksize for task 254: unlimited
  | Maximum stacksize for task 255: unlimited
  | Current stacksize for task 0: unlimited
  | Current stacksize for task 1: unlimited
  | Current stacksize for task 2: unlimited
  | Current stacksize for task 3: unlimited
  | Current stacksize for task 4: unlimited
  | Current stacksize for task 5: unlimited
  | Current stacksize for task 6: unlimited
  | Current stacksize for task 7: unlimited
  | Current stacksize for task 8: unlimited
  | Current stacksize for task 9: unlimited
  | Current stacksize for task 10: unlimited
  | Current stacksize for task 11: unlimited
  | Current stacksize for task 12: unlimited
  | Current stacksize for task 13: unlimited
  | Current stacksize for task 14: unlimited
  | Current stacksize for task 15: unlimited
  | Current stacksize for task 16: unlimited
  | Current stacksize for task 17: unlimited
  | Current stacksize for task 18: unlimited
  | Current stacksize for task 19: unlimited
  | Current stacksize for task 20: unlimited
  | Current stacksize for task 21: unlimited
  | Current stacksize for task 22: unlimited
  | Current stacksize for task 23: unlimited
  | Current stacksize for task 24: unlimited
  | Current stacksize for task 25: unlimited
  | Current stacksize for task 26: unlimited
  | Current stacksize for task 27: unlimited
  | Current stacksize for task 28: unlimited
  | Current stacksize for task 29: unlimited
  | Current stacksize for task 30: unlimited
  | Current stacksize for task 31: unlimited
  | Current stacksize for task 32: unlimited
  | Current stacksize for task 33: unlimited
  | Current stacksize for task 34: unlimited
  | Current stacksize for task 35: unlimited
  | Current stacksize for task 36: unlimited
  | Current stacksize for task 37: unlimited
  | Current stacksize for task 38: unlimited
  | Current stacksize for task 39: unlimited
  | Current stacksize for task 40: unlimited
  | Current stacksize for task 41: unlimited
  | Current stacksize for task 42: unlimited
  | Current stacksize for task 43: unlimited
  | Current stacksize for task 44: unlimited
  | Current stacksize for task 45: unlimited
  | Current stacksize for task 46: unlimited
  | Current stacksize for task 47: unlimited
  | Current stacksize for task 48: unlimited
  | Current stacksize for task 49: unlimited
  | Current stacksize for task 50: unlimited
  | Current stacksize for task 51: unlimited
  | Current stacksize for task 52: unlimited
  | Current stacksize for task 53: unlimited
  | Current stacksize for task 54: unlimited
  | Current stacksize for task 55: unlimited
  | Current stacksize for task 56: unlimited
  | Current stacksize for task 57: unlimited
  | Current stacksize for task 58: unlimited
  | Current stacksize for task 59: unlimited
  | Current stacksize for task 60: unlimited
  | Current stacksize for task 61: unlimited
  | Current stacksize for task 62: unlimited
  | Current stacksize for task 63: unlimited
  | Current stacksize for task 64: unlimited
  | Current stacksize for task 65: unlimited
  | Current stacksize for task 66: unlimited
  | Current stacksize for task 67: unlimited
  | Current stacksize for task 68: unlimited
  | Current stacksize for task 69: unlimited
  | Current stacksize for task 70: unlimited
  | Current stacksize for task 71: unlimited
  | Current stacksize for task 72: unlimited
  | Current stacksize for task 73: unlimited
  | Current stacksize for task 74: unlimited
  | Current stacksize for task 75: unlimited
  | Current stacksize for task 76: unlimited
  | Current stacksize for task 77: unlimited
  | Current stacksize for task 78: unlimited
  | Current stacksize for task 79: unlimited
  | Current stacksize for task 80: unlimited
  | Current stacksize for task 81: unlimited
  | Current stacksize for task 82: unlimited
  | Current stacksize for task 83: unlimited
  | Current stacksize for task 84: unlimited
  | Current stacksize for task 85: unlimited
  | Current stacksize for task 86: unlimited
  | Current stacksize for task 87: unlimited
  | Current stacksize for task 88: unlimited
  | Current stacksize for task 89: unlimited
  | Current stacksize for task 90: unlimited
  | Current stacksize for task 91: unlimited
  | Current stacksize for task 92: unlimited
  | Current stacksize for task 93: unlimited
  | Current stacksize for task 94: unlimited
  | Current stacksize for task 95: unlimited
  | Current stacksize for task 96: unlimited
  | Current stacksize for task 97: unlimited
  | Current stacksize for task 98: unlimited
  | Current stacksize for task 99: unlimited
  | Current stacksize for task 100: unlimited
  | Current stacksize for task 101: unlimited
  | Current stacksize for task 102: unlimited
  | Current stacksize for task 103: unlimited
  | Current stacksize for task 104: unlimited
  | Current stacksize for task 105: unlimited
  | Current stacksize for task 106: unlimited
  | Current stacksize for task 107: unlimited
  | Current stacksize for task 108: unlimited
  | Current stacksize for task 109: unlimited
  | Current stacksize for task 110: unlimited
  | Current stacksize for task 111: unlimited
  | Current stacksize for task 112: unlimited
  | Current stacksize for task 113: unlimited
  | Current stacksize for task 114: unlimited
  | Current stacksize for task 115: unlimited
  | Current stacksize for task 116: unlimited
  | Current stacksize for task 117: unlimited
  | Current stacksize for task 118: unlimited
  | Current stacksize for task 119: unlimited
  | Current stacksize for task 120: unlimited
  | Current stacksize for task 121: unlimited
  | Current stacksize for task 122: unlimited
  | Current stacksize for task 123: unlimited
  | Current stacksize for task 124: unlimited
  | Current stacksize for task 125: unlimited
  | Current stacksize for task 126: unlimited
  | Current stacksize for task 127: unlimited
  | Current stacksize for task 128: unlimited
  | Current stacksize for task 129: unlimited
  | Current stacksize for task 130: unlimited
  | Current stacksize for task 131: unlimited
  | Current stacksize for task 132: unlimited
  | Current stacksize for task 133: unlimited
  | Current stacksize for task 134: unlimited
  | Current stacksize for task 135: unlimited
  | Current stacksize for task 136: unlimited
  | Current stacksize for task 137: unlimited
  | Current stacksize for task 138: unlimited
  | Current stacksize for task 139: unlimited
  | Current stacksize for task 140: unlimited
  | Current stacksize for task 141: unlimited
  | Current stacksize for task 142: unlimited
  | Current stacksize for task 143: unlimited
  | Current stacksize for task 144: unlimited
  | Current stacksize for task 145: unlimited
  | Current stacksize for task 146: unlimited
  | Current stacksize for task 147: unlimited
  | Current stacksize for task 148: unlimited
  | Current stacksize for task 149: unlimited
  | Current stacksize for task 150: unlimited
  | Current stacksize for task 151: unlimited
  | Current stacksize for task 152: unlimited
  | Current stacksize for task 153: unlimited
  | Current stacksize for task 154: unlimited
  | Current stacksize for task 155: unlimited
  | Current stacksize for task 156: unlimited
  | Current stacksize for task 157: unlimited
  | Current stacksize for task 158: unlimited
  | Current stacksize for task 159: unlimited
  | Current stacksize for task 160: unlimited
  | Current stacksize for task 161: unlimited
  | Current stacksize for task 162: unlimited
  | Current stacksize for task 163: unlimited
  | Current stacksize for task 164: unlimited
  | Current stacksize for task 165: unlimited
  | Current stacksize for task 166: unlimited
  | Current stacksize for task 167: unlimited
  | Current stacksize for task 168: unlimited
  | Current stacksize for task 169: unlimited
  | Current stacksize for task 170: unlimited
  | Current stacksize for task 171: unlimited
  | Current stacksize for task 172: unlimited
  | Current stacksize for task 173: unlimited
  | Current stacksize for task 174: unlimited
  | Current stacksize for task 175: unlimited
  | Current stacksize for task 176: unlimited
  | Current stacksize for task 177: unlimited
  | Current stacksize for task 178: unlimited
  | Current stacksize for task 179: unlimited
  | Current stacksize for task 180: unlimited
  | Current stacksize for task 181: unlimited
  | Current stacksize for task 182: unlimited
  | Current stacksize for task 183: unlimited
  | Current stacksize for task 184: unlimited
  | Current stacksize for task 185: unlimited
  | Current stacksize for task 186: unlimited
  | Current stacksize for task 187: unlimited
  | Current stacksize for task 188: unlimited
  | Current stacksize for task 189: unlimited
  | Current stacksize for task 190: unlimited
  | Current stacksize for task 191: unlimited
  | Current stacksize for task 192: unlimited
  | Current stacksize for task 193: unlimited
  | Current stacksize for task 194: unlimited
  | Current stacksize for task 195: unlimited
  | Current stacksize for task 196: unlimited
  | Current stacksize for task 197: unlimited
  | Current stacksize for task 198: unlimited
  | Current stacksize for task 199: unlimited
  | Current stacksize for task 200: unlimited
  | Current stacksize for task 201: unlimited
  | Current stacksize for task 202: unlimited
  | Current stacksize for task 203: unlimited
  | Current stacksize for task 204: unlimited
  | Current stacksize for task 205: unlimited
  | Current stacksize for task 206: unlimited
  | Current stacksize for task 207: unlimited
  | Current stacksize for task 208: unlimited
  | Current stacksize for task 209: unlimited
  | Current stacksize for task 210: unlimited
  | Current stacksize for task 211: unlimited
  | Current stacksize for task 212: unlimited
  | Current stacksize for task 213: unlimited
  | Current stacksize for task 214: unlimited
  | Current stacksize for task 215: unlimited
  | Current stacksize for task 216: unlimited
  | Current stacksize for task 217: unlimited
  | Current stacksize for task 218: unlimited
  | Current stacksize for task 219: unlimited
  | Current stacksize for task 220: unlimited
  | Current stacksize for task 221: unlimited
  | Current stacksize for task 222: unlimited
  | Current stacksize for task 223: unlimited
  | Current stacksize for task 224: unlimited
  | Current stacksize for task 225: unlimited
  | Current stacksize for task 226: unlimited
  | Current stacksize for task 227: unlimited
  | Current stacksize for task 228: unlimited
  | Current stacksize for task 229: unlimited
  | Current stacksize for task 230: unlimited
  | Current stacksize for task 231: unlimited
  | Current stacksize for task 232: unlimited
  | Current stacksize for task 233: unlimited
  | Current stacksize for task 234: unlimited
  | Current stacksize for task 235: unlimited
  | Current stacksize for task 236: unlimited
  | Current stacksize for task 237: unlimited
  | Current stacksize for task 238: unlimited
  | Current stacksize for task 239: unlimited
  | Current stacksize for task 240: unlimited
  | Current stacksize for task 241: unlimited
  | Current stacksize for task 242: unlimited
  | Current stacksize for task 243: unlimited
  | Current stacksize for task 244: unlimited
  | Current stacksize for task 245: unlimited
  | Current stacksize for task 246: unlimited
  | Current stacksize for task 247: unlimited
  | Current stacksize for task 248: unlimited
  | Current stacksize for task 249: unlimited
  | Current stacksize for task 250: unlimited
  | Current stacksize for task 251: unlimited
  | Current stacksize for task 252: unlimited
  | Current stacksize for task 253: unlimited
  | Current stacksize for task 254: unlimited
  | Current stacksize for task 255: unlimited

  Consistency checks for the contents of control.in are next.

  MPI_IN_PLACE appears to work with this MPI implementation.
  | Keeping use_mpi_in_place .true. (see manual).
  Target number of points in a grid batch is not set. Defaulting to  100
  Method for grid partitioning is not set. Defaulting to parallel hash+maxmin partitioning.
  Batch size limit is not set. Defaulting to    200
  By default, will store active basis functions for each batch.
  If in need of memory, prune_basis_once .false. can be used to disable this option.
  communication_type for Hartree potential was not specified.
  Defaulting to calc_hartree .
  Defaulting to Pulay charge density mixer.
  Pulay mixer: Number of relevant iterations not set.
  Defaulting to    8 iterations.
  Pulay mixer: Number of initial linear mixing iterations not set.
  Defaulting to    0 iterations.
  Work space size for distributed Hartree potential not set.
  Defaulting to   0.200000E+03 MB.
  Mixing parameter for charge density mixing has not been set.
  Using default: charge_mix_param =     0.0500.
  The mixing parameter will be adjusted in iteration number     2 of the first full s.c.f. cycle only.
  Algorithm-dependent basis array size parameters:
  | n_max_pulay                         :        8
  Maximum number of self-consistency iterations not provided.
  Presetting  1000 iterations.
  Presetting      1001 iterations before the initial mixing cycle
  is restarted anyway using the sc_init_iter criterion / keyword.
  Presetting a factor      1.000 between actual scf density residual
  and density convergence criterion sc_accuracy_rho below which sc_init_iter
  takes no effect.
  Calculation of forces was not defined in control.in. No forces will be calculated.
  Geometry relaxation not requested: no relaxation will be performed.
  No accuracy limit for integral partition fn. given. Defaulting to  0.1000E-14.
  No threshold value for u(r) in integrations given. Defaulting to  0.1000E-05.
  No accuracy for occupation numbers given. Defaulting to  0.1000E-12.
  No threshold value for occupation numbers given. Defaulting to  0.0000E+00.
  No accuracy for fermi level given. Defaulting to  0.1000E-19.
  Maximum # of iterations to find E_F not set. Defaulting to  200.
  Preferred method for the eigenvalue solver ('KS_method') not specified in 'control.in'.
  Defaulting to serial version, LAPACK (via ELSI), since more k-points than CPUs available.
  Will not use alltoall communication since running on < 1024 CPUs.
  Threshold for basis singularities not set.
  Default threshold for basis singularities:  0.1000E-04
  partition_type (choice of integration weights) for integrals was not specified.
  | Using a version of the partition function of Stratmann and coworkers ('stratmann_sparse').
  | At each grid point, the set of atoms used to build the partition table is smoothly restricted to
  | only those atoms whose free-atom density would be non-zero at that grid point.
  Partitioning for Hartree potential was not defined. Using partition_type for integrals.
  | Adjusted default value of keyword multip_moments_threshold to:       0.10000000E-11
  | This value may affect high angular momentum components of the Hartree potential in periodic systems.
  Angular momentum expansion for Kerker preconditioner not set explicitly.
  | Using default value of   0
  No explicit requirement for turning off preconditioner.
  | By default, it will be turned off when the charge convergence reaches
  | sc_accuracy_rho  =   0.100000E-06
  No special mixing parameter while Kerker preconditioner is on.
  Using default: charge_mix_param =     0.0500.
  No q(lm)/r^(l+1) cutoff set for long-range Hartree potential.
  | Using default value of  0.100000E-09 .
  | Verify using the multipole_threshold keyword.
  Defaulting to new monopole extrapolation.
  Density update method: automatic selection selected.
  Using density matrix based charge density update.
  Using density matrix based charge density update.
  Using packed matrix style: index .
  Defaulting to use time-reversal symmetry for k-point grid.
  Charge integration errors on the 3D integration grid will be compensated
  by explicit normalization and distribution of residual charges.
  Use the "compensate_multipole_errors" flag to change this behaviour.
  Set 'collect_eigenvectors' to be '.true.' for all serial calculations. This is mandatory.
  Set 'collect_eigenvectors' to be '.true.' for KS_method lapack_fast and serial.

  Consistency checks for the contents of geometry.in are next.


  Range separation radius for Ewald summation (hartree_convergence_parameter):      3.99343359 bohr.
  Number of empty states per atom not set in control.in - providing a guess from actual geometry.
  | Total number of empty states used during s.c.f. cycle:       57
  If you use a very high smearing, use empty_states (per atom!) in control.in to increase this value.

  Structure-dependent array size parameters: 
  | Maximum number of distinct radial functions  :       39
  | Maximum number of basis functions            :      440
  | Number of Kohn-Sham states (occupied + empty):      241
------------------------------------------------------------

------------------------------------------------------------
          Preparing all fixed parts of the calculation.
------------------------------------------------------------
  Determining machine precision:
     2.2250738585072014E-308
  Setting up grids for atomic and cluster calculations.

  Creating wave function, potential, and density for free atoms.
  Runtime choices for atomic solver:
  | atomic solver xc        : PW-LDA
  | compute density gradient: 1
  | compute kinetic density : T

  Species: Ba

  List of occupied orbitals and eigenvalues:
    n    l              occ      energy [Ha]    energy [eV]
    1    0           2.0000     -1427.155650    -38834.8811
    2    0           2.0000      -217.953811     -5930.8250
    3    0           2.0000       -45.693936     -1243.3953
    4    0           2.0000        -8.931165      -243.0294
    5    0           2.0000        -1.234011       -33.5792
    6    0           2.0000        -0.116702        -3.1756
    2    1           6.0000      -195.433631     -5318.0197
    3    1           6.0000       -38.541030     -1048.7548
    4    1           6.0000        -6.627770      -180.3508
    5    1           6.0000        -0.683116       -18.5885
    3    2          10.0000       -28.146624      -765.9086
    4    2          10.0000        -3.287105       -89.4467


  Species: Zr

  List of occupied orbitals and eigenvalues:
    n    l              occ      energy [Ha]    energy [eV]
    1    0           2.0000      -667.705443    -18169.1895
    2    0           2.0000       -90.947874     -2474.8176
    3    0           2.0000       -14.816438      -403.1758
    4    0           2.0000        -1.980587       -53.8945
    5    0           2.0000        -0.149501        -4.0681
    2    1           6.0000       -81.145891     -2208.0920
    3    1           6.0000       -11.637551      -316.6739
    4    1           6.0000        -1.172029       -31.8925
    3    2          10.0000        -6.408139      -174.3743
    4    2           2.0000        -0.117825        -3.2062


  Species: S

  List of occupied orbitals and eigenvalues:
    n    l              occ      energy [Ha]    energy [eV]
    1    0           2.0000       -88.354837     -2404.2574
    2    0           2.0000        -7.745703      -210.7713
    3    0           2.0000        -0.632869       -17.2213
    2    1           6.0000        -5.749956      -156.4643
    3    1           4.0000        -0.259011        -7.0480


  Adding cutoff potential to free-atom effective potential.
  Creating fixed part of basis set: Ionic, confined, hydrogenic.

  Ba                   ion:

  List of free ionic orbitals and eigenvalues:
    n    l      energy [Ha]    energy [eV]
    1    0     -1427.386486    -38841.1625
    2    0      -218.177246     -5936.9049
    3    0       -45.916216     -1249.4438
    4    0        -9.152701      -249.0577
    5    0        -1.452758       -39.5315
    6    0        -0.287342        -7.8190
    2    1      -195.656927     -5324.0959
    3    1       -38.763265     -1054.8021
    4    1        -6.849212      -186.3765
    5    1        -0.899782       -24.4843
    3    2       -28.368814      -771.9547
    4    2        -3.508339       -95.4668


  List of ionic basis orbitals and eigenvalues:
    n    l      energy [Ha]    energy [eV]    outer radius [A]
    5    2        -0.266679        -7.2567       6.051495
    4    3        -0.152367        -4.1461       5.977966


  Ba                   hydrogenic:

  List of hydrogenic basis orbitals: 
    n    l      effective z      eigenvalue [eV]  inner max. [A]     outer max. [A]     outer radius [A]   
    3    1         2.700000       -10.9875           0.585865           2.332071           6.051495
    4    0         3.300000        -8.5453           0.116675           3.711017           6.125929


  Zr                   ion:

  List of free ionic orbitals and eigenvalues:
    n    l      energy [Ha]    energy [eV]
    1    0      -668.422481    -18188.7011
    2    0       -91.659116     -2494.1714
    3    0       -15.521812      -422.3700
    4    0        -2.666442       -72.5576
    5    0        -0.652717       -17.7613
    2    1       -81.856520     -2227.4293
    3    1       -12.342798      -335.8646
    4    1        -1.848413       -50.2979
    3    2        -7.113819      -193.5769
    4    2        -0.734961       -19.9993


  List of ionic basis orbitals and eigenvalues:
    n    l      energy [Ha]    energy [eV]    outer radius [A]
    4    2        -0.734922       -19.9983       4.486525
    5    1        -0.474660       -12.9161       4.597573
    5    0        -0.651984       -17.7414       4.597573


  Zr                   hydrogenic:

  List of hydrogenic basis orbitals: 
    n    l      effective z      eigenvalue [eV]  inner max. [A]     outer max. [A]     outer radius [A]   
    4    3         7.200000       -44.0814           1.169212           1.169212           4.541709


  S                    ion:

  List of free ionic orbitals and eigenvalues:
    n    l      energy [Ha]    energy [eV]
    1    0       -89.377212     -2432.0777
    2    0        -8.738531      -237.7875
    3    0        -1.470337       -40.0099
    2    1        -6.744772      -183.5346
    3    1        -1.051741       -28.6193


  List of ionic basis orbitals and eigenvalues:
    n    l      energy [Ha]    energy [eV]    outer radius [A]
    3    2        -0.499012       -13.5788       4.539062
    3    0        -1.470320       -40.0094       3.642502


  S                    hydrogenic:

  List of hydrogenic basis orbitals: 
    n    l      effective z      eigenvalue [eV]  inner max. [A]     outer max. [A]     outer radius [A]   
    2    1         1.800000       -10.9749           1.168531           1.168531           4.594893
    4    3         7.000000       -41.6658           1.212182           1.212182           4.539062

  Creating atomic-like basis functions for current effective potential.

  Species Ba                  :

  List of atomic basis orbitals and eigenvalues:
    n    l      energy [Ha]    energy [eV]    outer radius [A]
    1    0     -1427.155650    -38834.8811       0.181180
    2    0      -217.953811     -5930.8250       0.481781
    3    0       -45.693936     -1243.3953       1.053516
    4    0        -8.931165      -243.0294       2.303735
    5    0        -1.234011       -33.5792       5.555178
    6    0        -0.116702        -3.1756       6.051495
    2    1      -195.433631     -5318.0197       0.493705
    3    1       -38.541030     -1048.7548       1.119920
    4    1        -6.627770      -180.3508       2.603304
    5    1        -0.683116       -18.5885       5.833578
    3    2       -28.146624      -765.9086       1.250174
    4    2        -3.287105       -89.4467       3.490975


  Species Zr                  :

  List of atomic basis orbitals and eigenvalues:
    n    l      energy [Ha]    energy [eV]    outer radius [A]
    1    0      -667.705443    -18169.1895       0.259930
    2    0       -90.947874     -2474.8176       0.725827
    3    0       -14.816438      -403.1758       1.771771
    4    0        -1.980587       -53.8945       4.169218
    5    0        -0.149501        -4.0681       4.597573
    2    1       -81.145891     -2208.0920       0.743792
    3    1       -11.637551      -316.6739       1.953807
    4    1        -1.172029       -31.8925       4.378160
    3    2        -6.408139      -174.3743       2.434714
    4    2        -0.117825        -3.2062       4.597573


  Species S                   :

  List of atomic basis orbitals and eigenvalues:
    n    l      energy [Ha]    energy [eV]    outer radius [A]
    1    0       -88.354837     -2404.2574       0.682391
    2    0        -7.745703      -210.7713       2.317169
    3    0        -0.632869       -17.2213       4.483910
    2    1        -5.749956      -156.4643       2.586670
    3    1        -0.259011        -7.0480       4.539062

  Assembling full basis from fixed parts.
  | Species Ba :   atomic orbital   1 s accepted.
  | Species Ba :   atomic orbital   2 s accepted.
  | Species Ba :   atomic orbital   3 s accepted.
  | Species Ba :   atomic orbital   4 s accepted.
  | Species Ba :   atomic orbital   5 s accepted.
  | Species Ba :   atomic orbital   6 s accepted.
  | Species Ba :    hydro orbital   4 s accepted.
  | Species Ba :   atomic orbital   2 p accepted.
  | Species Ba :   atomic orbital   3 p accepted.
  | Species Ba :   atomic orbital   4 p accepted.
  | Species Ba :   atomic orbital   5 p accepted.
  | Species Ba :    hydro orbital   3 p accepted.
  | Species Ba :   atomic orbital   3 d accepted.
  | Species Ba :   atomic orbital   4 d accepted.
  | Species Ba :    ionic orbital   5 d accepted.
  | Species Ba :    ionic orbital   4 f accepted.
  | Species Zr :   atomic orbital   1 s accepted.
  | Species Zr :   atomic orbital   2 s accepted.
  | Species Zr :   atomic orbital   3 s accepted.
  | Species Zr :   atomic orbital   4 s accepted.
  | Species Zr :   atomic orbital   5 s accepted.
  | Species Zr :    ionic orbital   5 s accepted.
  | Species Zr :   atomic orbital   2 p accepted.
  | Species Zr :   atomic orbital   3 p accepted.
  | Species Zr :   atomic orbital   4 p accepted.
  | Species Zr :    ionic orbital   5 p accepted.
  | Species Zr :   atomic orbital   3 d accepted.
  | Species Zr :    ionic orbital   4 d accepted.
  | Species Zr :   atomic orbital   4 d accepted.
  | Species Zr :    hydro orbital   4 f accepted.
  | Species S :   atomic orbital   1 s accepted.
  | Species S :   atomic orbital   2 s accepted.
  | Species S :    ionic orbital   3 s accepted.
  | Species S :   atomic orbital   3 s accepted.
  | Species S :   atomic orbital   2 p accepted.
  | Species S :   atomic orbital   3 p accepted.
  | Species S :    hydro orbital   2 p accepted.
  | Species S :    ionic orbital   3 d accepted.
  | Species S :    hydro orbital   4 f accepted.

  Basis size parameters after reduction:
  | Total number of radial functions:       39
  | Total number of basis functions :      440

  Per-task memory consumption for arrays in subroutine allocate_ext:
  |          14.590112MB.
  Testing on-site integration grid accuracy.
  |  Species  Function  <phi|h_atom|phi> (log., in eV)  <phi|h_atom|phi> (rad., in eV)
           1        1             -38834.8811451690             -38834.6647117858 ***
           1        2              -5930.8249573523              -5930.8213500928
           1        3              -1243.3952503758              -1243.3950981049
           1        4               -243.0293731306               -243.0293637457
           1        5                -33.5791537522                -33.5791529452
           1        6                 -3.1827621376                 -3.1788637959
           1        7                  2.7957385460                  2.8347858859 ***
           1        8              -5318.0196781015              -5318.0196729711
           1        9              -1048.7547900090              -1048.7547892014
           1       10               -180.3508090050               -180.3508070343
           1       11                -18.5885224437                -18.5885219680
           1       12                 -0.5551197312                 -0.5514583407
           1       13               -765.9086015434               -765.9086016335
           1       14                -89.4466817288                -89.4466807132
[...]
    461       0.00000                       5.389510           5.357260             0.096502
    462       0.00000                       5.389510           5.357260             0.000000
    463       0.00000                       5.389510           5.410305             0.053045
    464       0.00000                       5.389510           5.410305             0.000000
    465       0.00000                       5.389510           5.410374             0.000069
    466       0.00000                       5.389510           5.410374             0.000000
    467       0.00000                       5.422418           5.424233             0.013859
    468       0.00000                       5.422418           5.424233             0.000000
    469       0.00000                       5.900830           5.902172             0.477939
    470       0.00000                       5.900830           5.902172             0.000000
    471       0.00000                       5.900830           5.902193             0.000021
    472       0.00000                       5.900830           5.902193             0.000000
    473       0.00000                       6.418884           6.411552             0.509359
    474       0.00000                       6.418884           6.411552             0.000000
    475       0.00000                       6.418884           6.411560             0.000008
    476       0.00000                       6.418884           6.411560             0.000000
    477       0.00000                       6.418884           6.434896             0.023336
    478       0.00000                       6.418884           6.434896             0.000000
    479       0.00000                       6.703016           6.701951             0.267055
    480       0.00000                       6.703016           6.701951             0.000000
    481       0.00000                       6.703016           6.704179             0.002228
    482       0.00000                       6.703016           6.704179             0.000000

  What follows are estimated values for band gap, HOMO, LUMO, etc.
  | They are estimated on a discrete k-point grid and not necessarily exact.
  | For converged numbers, create a DOS and/or band structure plot on a denser k-grid.

  Highest occupied state (VBM) at     -4.53181903 eV (relative to internal zero)
  | Occupation number:      0.50645304
  | K-point:     311 at    0.250000    0.166667    0.250000 (in units of recip. lattice)

  Lowest unoccupied state (CBM) at    -4.52301864 eV (relative to internal zero)
  | Occupation number:      0.45688670
  | K-point:     818 at    0.833333    0.583333    0.250000 (in units of recip. lattice)

  ESTIMATED overall HOMO-LUMO gap:      0.00880039 eV between HOMO at k-point 311 and LUMO at k-point 818
  | This appears to be an indirect band gap.
  | Smallest direct gap :      0.05082071 eV for k_point 662 at    0.500000    0.416667    0.500000 (in units of recip. lattice)
  However, this system has fractional occupation numbers. Since we use a finite k-point grid,
  this material is metallic within the approximate finite broadening function (occupation_type)
  applied to determine the occupation numbers.
  Calculating total density of states ...
  | Chemical potential is  -4.530675 eV.
  | writing DOS (shifted by electron chemical potential) to file KS_DOS_total.dat
  | writing DOS (raw data) to file KS_DOS_total_raw.dat
  | Note that, for insulating systems, the printed 'chemical potential' value is not uniquely defined.
  | It can be anywhere in the energy gap, as long as it correctly separates occupied and unoccupied states.
  | In systems with a gap, the physically relevant chemical potential is the VBM or HOMO.


  Spin-orbit coupling                                     :  max(cpu_time)    wall_clock(cpu1)
  | Computing matrix elements for SOC operator            :          0.363               0.363
  | Constructing second-variational Hamiltonian           :          0.334               0.335
  | Diagonalizing second-variational Hamiltonian          :          0.812               0.811
  | Syncing data and calculating occupations              :          0.517               0.502
  | Writing out data, calculating band gaps, etc.         :          0.008               0.010
  | Total SOC time                                        :          2.033               2.033

  Partial memory accounting:
  | Current value for overall tracked memory usage:
  |   Minimum:       24.002 MB (on task   0)
  |   Maximum:       25.620 MB (on task   1)
  |   Average:       24.634 MB
  | Peak value for overall tracked memory usage:
  |   Minimum:       69.749 MB (on task 175 after allocating potential_shell)
  |   Maximum:       74.455 MB (on task  27 after allocating potential_shell)
  |   Average:       71.896 MB
  | Largest tracked array allocation so far:
  |   Minimum:       15.960 MB (spin_expectation on task   0)
  |   Maximum:       15.960 MB (spin_expectation on task   0)
  |   Average:       15.960 MB
  Note:  These values currently only include a subset of arrays which are explicitly tracked.
  The "true" memory usage will be greater.
 ------------------------------------------------------------

  -------------------------------------------------------------------
  Writing the requested band structure output (LAPACK version):
  -------------------------------------------------------------------

  Integrating Hamiltonian matrix: batch-based integration.
  Time summed over all CPUs for integration: real work       18.520 s, elapsed       23.227 s
  Integrating SOC matrix: batch-based integration p2 version.
  Allocating        0.235 MB for dist_tab
  Allocating        0.235 MB for dist_tab_sq
  Allocating        0.705 MB for dir_tab
  Allocating        0.030 MB for i_basis_fns
  Allocating        1.518 MB for i_basis_fns_inv
  Allocating        0.030 MB for i_atom_fns
  Allocating        2.277 MB for gradient_basis_wave
  Allocating        0.003 MB for ylm_tab
  Allocating        0.001 MB for radial_wave
  Allocating        0.001 MB for radial_wave_deriv
  Allocating        0.019 MB for i_basis
  Allocating        3.184 MB for soc_shell
  Allocating        0.008 MB for cartesians
  Allocating        0.010 MB for sum_gradient
  Allocating        0.020 MB for sum_hessian
  Allocating        0.001 MB for potential_shell

  Treating all   30 k-points in band plot segment #   1:


  Scalar-relativistic "band gap" along reciprocal space direction number:    1
  | Lowest unoccupied state:      -4.52219620 eV
  | Highest occupied state :      -4.54014383 eV
  | Energy difference      :       0.01794763 eV


Spin-orbit-coupled "band gap" along reciprocal space direction number:    1
  | Lowest unoccupied state:      -4.52596998 eV
  | Highest occupied state :      -4.54569384 eV
  | Energy difference      :       0.01972386 eV


  Treating all   15 k-points in band plot segment #   2:


  Scalar-relativistic "band gap" along reciprocal space direction number:    2
  | Lowest unoccupied state:      -4.51167682 eV
  | Highest occupied state :      -4.67065789 eV
  | Energy difference      :       0.15898107 eV


Spin-orbit-coupled "band gap" along reciprocal space direction number:    2
  | Lowest unoccupied state:      -4.51138563 eV
  | Highest occupied state :      -4.66285797 eV
  | Energy difference      :       0.15147234 eV


  Treating all   11 k-points in band plot segment #   3:


  Scalar-relativistic "band gap" along reciprocal space direction number:    3
  | Lowest unoccupied state:      -4.52188055 eV
  | Highest occupied state :      -4.66048761 eV
  | Energy difference      :       0.13860706 eV


Spin-orbit-coupled "band gap" along reciprocal space direction number:    3
  | Lowest unoccupied state:      -4.52272137 eV
  | Highest occupied state :      -4.65884403 eV
  | Energy difference      :       0.13612266 eV


  Treating all   32 k-points in band plot segment #   4:


  Scalar-relativistic "band gap" along reciprocal space direction number:    4
  | Lowest unoccupied state:      -4.52188055 eV
  | Highest occupied state :      -4.53308966 eV
  | Energy difference      :       0.01120910 eV


Spin-orbit-coupled "band gap" along reciprocal space direction number:    4
  | Lowest unoccupied state:      -4.52272137 eV
  | Highest occupied state :      -4.53937002 eV
  | Energy difference      :       0.01664866 eV


  Treating all   26 k-points in band plot segment #   5:


  Scalar-relativistic "band gap" along reciprocal space direction number:    5
  | Lowest unoccupied state:      -4.50133408 eV
  | Highest occupied state :      -5.02648959 eV
  | Energy difference      :       0.52515552 eV


Spin-orbit-coupled "band gap" along reciprocal space direction number:    5
  | Lowest unoccupied state:      -4.51912714 eV
  | Highest occupied state :      -5.02614961 eV
  | Energy difference      :       0.50702247 eV


  Treating all   18 k-points in band plot segment #   6:


  Scalar-relativistic "band gap" along reciprocal space direction number:    6
  | Lowest unoccupied state:      -4.52188055 eV
  | Highest occupied state :      -4.54110119 eV
  | Energy difference      :       0.01922064 eV


Spin-orbit-coupled "band gap" along reciprocal space direction number:    6
  | Lowest unoccupied state:      -4.52271546 eV
  | Highest occupied state :      -4.54801816 eV
  | Energy difference      :       0.02530270 eV


  Treating all   11 k-points in band plot segment #   7:


  Scalar-relativistic "band gap" along reciprocal space direction number:    7
  | Lowest unoccupied state:      -4.52188055 eV
  | Highest occupied state :      -4.66048761 eV
  | Energy difference      :       0.13860706 eV


Spin-orbit-coupled "band gap" along reciprocal space direction number:    7
  | Lowest unoccupied state:      -4.52271546 eV
  | Highest occupied state :      -4.65883080 eV
  | Energy difference      :       0.13611533 eV


  Treating all   21 k-points in band plot segment #   8:


  Scalar-relativistic "band gap" along reciprocal space direction number:    8
  | Lowest unoccupied state:      -4.50133408 eV
  | Highest occupied state :      -4.53693335 eV
  | Energy difference      :       0.03559927 eV


Spin-orbit-coupled "band gap" along reciprocal space direction number:    8
  | Lowest unoccupied state:      -4.51912714 eV
  | Highest occupied state :      -4.54453645 eV
  | Energy difference      :       0.02540931 eV


  Treating all   18 k-points in band plot segment #   9:


  Scalar-relativistic "band gap" along reciprocal space direction number:    9
  | Lowest unoccupied state:      -4.52188055 eV
  | Highest occupied state :      -4.54110119 eV
  | Energy difference      :       0.01922064 eV


Spin-orbit-coupled "band gap" along reciprocal space direction number:    9
  | Lowest unoccupied state:      -4.52272137 eV
  | Highest occupied state :      -4.54802201 eV
  | Energy difference      :       0.02530064 eV


  Treating all   11 k-points in band plot segment #  10:


  Scalar-relativistic "band gap" along reciprocal space direction number:   10
  | Lowest unoccupied state:      -4.52188055 eV
  | Highest occupied state :      -4.74078268 eV
  | Energy difference      :       0.21890213 eV


Spin-orbit-coupled "band gap" along reciprocal space direction number:   10
  | Lowest unoccupied state:      -4.52271546 eV
  | Highest occupied state :      -4.73934394 eV
  | Energy difference      :       0.21662847 eV

  Scalar-relativistic "band gap" of total set of bands:
  | Lowest unoccupied state:      -4.52219620 eV
  | Highest occupied state :      -4.53308966 eV
  | Energy difference      :       0.01089346 eV

  Spin-orbit-coupled "band gap" of total set of bands:
  | Lowest unoccupied state:      -4.52596998 eV
  | Highest occupied state :      -4.53937002 eV
  | Energy difference      :       0.01340004 eV


  Band Structure                                          :  max(cpu_time) wall_clock(cpu1)
  | Total Time                                            :          4.417            5.330
------------------------------------------------------------

------------------------------------------------------------------------------
  Final output of selected total energy values:

  The following output summarizes some interesting total energy values
  at the end of a run (AFTER all relaxation, molecular dynamics, etc.).

  | Total energy of the DFT / Hartree-Fock s.c.f. calculation      :        -679887.125883183 eV
  | Final zero-broadening corrected energy (caution - metals only) :        -679887.154043646 eV
  | Total energy after non-SC SOC correction (DO NOT USE)          :        -679887.368875943 eV
  | For reference only, the value of 1 Hartree used in FHI-aims is :             27.211384500 eV
  | For reference only, the overall average (free atom contribution
  | + realspace contribution) of the electrostatic potential after
  | s.c.f. convergence is                                          :            -16.423006078 eV

  Before relying on these values, please be sure to understand exactly which
  total energy value is referred to by a given number. Different objects may
  all carry the same name 'total energy'. Definitions:

  Total energy of the DFT / Hartree-Fock s.c.f. calculation:
  | Note that this energy does not include ANY quantities calculated after the
  | s.c.f. cycle, in particular not ANY RPA, MP2, etc. many-body perturbation terms.

  Final zero-broadening corrected energy:
  | For metallic systems only, a broadening of the occupation numbers at the Fermi
  | level can be extrapolated back to zero broadening by an electron-gas inspired
  | formula. For all systems that are not real metals, this value can be
  | meaningless and should be avoided.

------------------------------------------------------------------------------
  Methods described in the following list of references were used in this FHI-aims run.
  If you publish the results, please make sure to cite these reference if they apply.
  FHI-aims is an academic code, and for our developers (often, Ph.D. students
  and postdocs), scientific credit in the community is essential.
  Thank you for helping us!

  For any use of FHI-aims, please cite:

    Volker Blum, Ralf Gehrke, Felix Hanke, Paula Havu, Ville Havu,
    Xinguo Ren, Karsten Reuter, and Matthias Scheffler
    'Ab initio molecular simulations with numeric atom-centered orbitals'
    Computer Physics Communications 180, 2175-2196 (2009)
    http://doi.org/10.1016/j.cpc.2009.06.022


  For the 'Strongly Constrained and Appropriately Normed' (SCAN)
  meta-GGA functional, please cite:

    Jianwei Sun and Adrienn Ruzsinszky and JohnP. Perdew,
    'Strongly Constrained and Appropriately Normed Semilocal Density Functional'
     Physical Review Letters 115, 036402 (2015).


  The provided symmetry information was generated with SPGlib:

    Atsushi Togo, Yusuke Seto, Dimitar Pashov
    SPGlib 1.7.3 obtained from http://spglib.sourceforge.net
    Copyright (C) 2008 Atsushi Togo


  For second-variational spin-orbit coupling used in your run, please cite:

    William P. Huhn and Volker Blum,
    'One-hundred-three compound band-structure benchmark of post-self-consistent'
    'spin-orbit coupling treatments in density functional theory'
    Phys. Rev. Materials 1, 033803 (2017).


  The ELSI infrastructure was used in your run to solve the Kohn-Sham electronic structure.
  Please check out http://elsi-interchange.org to learn more.
  If scalability is important for your project, please acknowledge ELSI by citing:

    V. W-z. Yu, F. Corsetti, A. Garcia, W. P. Huhn, M. Jacquelin, W. Jia,
    B. Lange, L. Lin, J. Lu, W. Mi, A. Seifitokaldani, A. Vazquez-Mayagoitia,
    C. Yang, H. Yang, and V. Blum
    'ELSI: A unified software interface for Kohn-Sham electronic structure solvers'
    Computer Physics Communications 222, 267-285 (2018).
    http://doi.org/10.1016/j.cpc.2017.09.007


  For the real-space grid partitioning and parallelization used in this calculation, please cite:

    Ville Havu, Volker Blum, Paula Havu, and Matthias Scheffler,
    'Efficient O(N) integration for all-electron electronic structure calculation'
    'using numerically tabulated basis functions'
    Journal of Computational Physics 228, 8367-8379 (2009).
    http://doi.org/10.1016/j.jcp.2009.08.008

  Of course, there are many other important community references, e.g., those cited in the
  above references. Our list is limited to references that describe implementations in the
  FHI-aims code. The reason is purely practical (length of this list) - please credit others as well.

 * A warning was issued further up regarding the accuracy of onsite integrals.
   An integral with a negative eigenvalue was among the flagged integrals.
   In most standard situations, this warning is probably harmless.
   If needed, this can be verified by adjusting the radial_multiplier flag.

   One or more s.c.f. cycles took more than 50 s.c.f. iterations.
   It might be worth adjusting your convergence settings. For example,
   metals need a larger broadening and a smaller "charge_mix_param" value than semiconductors.

------------------------------------------------------------
          Leaving FHI-aims.
          Date     :  20220721, Time     :  105703.016

          Computational steps:
          | Number of self-consistency cycles          :          101
          | Number of SCF (re)initializations          :            1

          Detailed time accounting                     :  max(cpu_time)    wall_clock(cpu1)
          | Total time                                  :      105.498 s         106.062 s
          | Preparation time                            :        0.525 s           0.589 s
          | Boundary condition initalization            :        0.121 s           0.120 s
          | Grid partitioning                           :        0.050 s           0.050 s
          | Preloading free-atom quantities on grid     :        0.024 s           0.024 s
          | Free-atom superposition energy              :        0.002 s           0.003 s
          | Total time for integrations                 :       11.462 s          11.467 s
          | Total time for solution of K.-S. equations  :       52.001 s          52.064 s
          | Total time for density update               :       22.755 s          22.763 s
          | Total time for mixing & preconditioning     :        5.448 s           4.020 s
          | Total time for Hartree multipole update     :        0.193 s           0.195 s
          | Total time for Hartree multipole sum        :        4.199 s           4.199 s
          | Total time for total energy evaluation      :        0.528 s           0.514 s
          | Total time for scaled ZORA corrections      :        0.000 s           0.000 s
          | Total time for perturbative SOC             :        2.033 s           2.033 s
          | Total time for band structures, DOS         :        5.302 s           5.339 s

          Partial memory accounting:
          | Residual value for overall tracked memory usage across tasks:     0.000000 MB (should be 0.000000 MB)
          | Peak values for overall tracked memory usage:
          |   Minimum:       69.749 MB (on task 175 after allocating potential_shell)
          |   Maximum:       74.455 MB (on task  27 after allocating potential_shell)
          |   Average:       71.896 MB
          | Largest tracked array allocation:
          |   Minimum:       15.960 MB (spin_expectation on task   0)
          |   Maximum:       15.960 MB (spin_expectation on task   0)
          |   Average:       15.960 MB
          Note:  These values currently only include a subset of arrays which are explicitly tracked.
          The "true" memory usage will be greater.

          Have a nice day.
------------------------------------------------------------
